#     DFTpy    
  CRYSTAL 
    
  PRIMVEC    
  5.692137931034481    0.0    0.0    
  0.0    5.692137931034481    0.0    
  0.0    0.0    5.692137931034481    
  PRIMCOORD    
  7    1    
  Si    0.0    0.0    0.0    
  Si    0.0    2.846068965517241    2.846068965517241    
  Si    1.4230344827586205    4.269103448275861    4.269103448275861    
  Si    2.846068965517241    0.0    2.846068965517241    
  Si    4.269103448275861    1.4230344827586205    4.269103448275861    
  Si    2.846068965517241    2.846068965517241    0.0    
  Si    4.269103448275861    4.269103448275861    1.4230344827586205    
  BEGIN_BLOCK_DATAGRID_3D    
  3d_datagrid_density    
  BEGIN_DATAGRID_3D#0    
  55    55    55    
  0.0    0.0    0.0    
  5.692137952266264    0.0    0.0    
  0.0    5.692137952266264    0.0    
  0.0    0.0    5.692137952266264    
  0.05192513423054203    0.06113082163903341    0.0898716621909779    0.1435248493285368    0.22030089601535405    
  0.3027633347764037    0.3633425277100336    0.382929177901727    0.36266108249106777    0.3177987886360135    
  0.264631946714151    0.21354889309064032    0.16921442002780232    0.13288655980782424    0.10412040932486115    
  0.08176702602854748    0.06458385350687129    0.05149400874257316    0.0415996296283009    0.03415531158224341    
  0.028578358353497684    0.024442852274095983    0.02143621468271753    0.019320893880168003    0.01792370926668623    
  0.017130770773907535    0.016872147767138503    0.01710869414018616    0.01783142447032961    0.019063947793467723    
  0.020859397909591036    0.02330027728960958    0.02650839454367115    0.030653494227806374    0.035952649356319324    
  0.042681032193545125    0.051211283408388576    0.06204871220087575    0.07582141961323384    0.0932598447739992    
  0.11522212205534284    0.14268524307539135    0.17651474531042458    0.21693391726403194    0.26264583579858497    
  0.3092902217655185    0.3473688720058003    0.36223405845023215    0.34055337177047773    0.28208573987165236    
  0.20479807931558802    0.13383548070205195    0.08478178241750743    0.05905741767517832    0.05192513423054203    
  0.06113082163903341    0.07044592771829508    0.09979682347951725    0.15331508755156423    0.22775344866727842    
  0.30530606995175913    0.3598684132896104    0.37452826886014573    0.3516240193613011    0.30620487858554235    
  0.2537310833594908    0.20388367648427672    0.16092482074758438    0.1259169728644494    0.09833095679479027    
  0.07699662415102934    0.060679680020482143    0.04831799516709093    0.03902866486816339    0.03208301514202454    
  0.026916056281649312    0.023117876352900288    0.020389260137004834    0.01850368953510734    0.017296654816172537    
  0.016660662427050537    0.016530754804010162    0.016872147767138454    0.017679610526039273    0.01897956038523962    
  0.020827029012232188    0.02330593983448765    0.02653966661104873    0.030700301243155943    0.036008020330593964    
  0.04274071318735053    0.05127258290270546    0.062110885589126794    0.07588808342058646    0.09333983887177734    
  0.11532720226896892    0.14283178820293627    0.17673945499658195    0.2173267024916414    0.2634082954280141    
  0.3108467357878223    0.3505097033743991    0.3680802174237054    0.3500149910435084    0.29493850829451523    
  0.21932931943197687    0.1477927734641148    0.09680893779485056    0.06920749807334683    0.06113082163903341    
  0.0898716621909778    0.09979682347951715    0.13093486874431462    0.18438351553183027    0.25353852624937573    
  0.3200170644931281    0.361300899303266    0.3653808574196555    0.3369843874952784    0.2904190341773146    
  0.2392136116758821    0.1915304968008892    0.15083727705072378    0.11786054892541455    0.0919664579716275    
  0.0719987297415363    0.056780265288496654    0.045301613468449575    0.036718444285402205    0.03033512984331787    
  0.02561756350418916    0.02218183018660138    0.019748825836455475    0.0181075590116841    0.017105165821093938    
  0.01664240641799028    0.016660662427050443    0.017130770773907372    0.018052042123926228    0.01945361935114427    
  0.02139177943254115    0.02395109467207884    0.02725550857388671    0.03147785707563811    0.036838721075251525    
  0.04361385909854394    0.052171093200471    0.0630091795606475    0.07675210959076499    0.09412065231565932    
  0.11594458588722184    0.14316702937695805    0.17666661614584678    0.21679734611533524    0.26262081287466454    
  0.310597707797588    0.3527344139858831    0.37606463646462424    0.36724698922135396    0.3225077944011814    
  0.2541855959802463    0.1843869945634207    0.13084544259339073    0.09975017746552667    0.0898716621909778    
  0.14352484932853682    0.15331508755156428    0.18438351553183038    0.23381923478416808    0.2915480926835394    
  0.34004351131348054    0.3624425193210497    0.3527971777392212    0.3179882906909302    0.2706609258644601    
  0.2216008514948965    0.17700388765740988    0.13935912133850828    0.10900517126570174    0.08521641880630063    
  0.06689256734621714    0.05295706445236849    0.042484096663392715    0.03468792405267255    0.028920360483650265    
  0.024688873652656183    0.021642607650879362    0.019527019943536086    0.018149878804988414    0.017372413080288873    
  0.017105165821094056    0.017296654816172517    0.017923709266686207    0.01899012627092142    0.020527352493441956    
  0.02259252446515127    0.025270609348027297    0.028685339760884266    0.03300834487617887    0.03845743084607969    
  0.04530147756942807    0.05389455441035579    0.06471646075280742    0.0783690222014752    0.09553771467002589    
  0.11698745481324632    0.14357695669985976    0.1761368530237409    0.21509091802982794    0.2598088381146462    
  0.30755881378363403    0.351990946803634    0.38236412328429886    0.3864360419715288    0.35808419574618267    
  0.30408071758420363    0.24182559402881737    0.18896543654192252    0.1553629525056325    0.14352484932853682    
  0.220300896015354    0.22775344866727837    0.2535385262493759    0.29154809268353926    0.33030254995147446    
  0.3555334808778729    0.35701737091180963    0.3340264103396225    0.29414675891574593    0.24742930279081976    
  0.2016250553275101    0.16095846712345435    0.12698274166309528    0.09968863352434568    0.07830306620291116    
  0.06182433004097607    0.04930739195560198    0.03993025848541615    0.032981150234684    0.027871917815330296    
  0.024160148563393696    0.021532499791197295    0.019761290087269873    0.018674825771467618    0.018149878804988414    
  0.01810755901168412    0.018503689535107316    0.019320893880168003    0.020566948845611215    0.02227491628573284    
  0.02450230757236563    0.027334207100062714    0.03089319195147524    0.03534718634873483    0.04090726305222187    
  0.04783018161039802    0.05644858438909529    0.0672118414160655    0.08068468638204108    0.09749878953028675    
  0.1183275575200298    0.14390550010227632    0.1749676558082167    0.21196756293634506    0.2545600955661398    
  0.30082542776506654    0.34617203154295006    0.3825417473138821    0.3998231445901735    0.39084208339428106    
  0.3572277755554569    0.31027545653828154    0.26502593156626664    0.23313266761577947    0.220300896015354    
  0.3027633347764037    0.30530606995175913    0.32001706449312817    0.3400435113134805    0.3555334808778729    
  0.357155984429134    0.34050423004153996    0.3078644519152672    0.26589388843625833    0.22166974430397465    
  0.18021315183740366    0.1441259363072049    0.11422406013133582    0.09025177193659195    0.07144871785443584    
  0.05694425727562547    0.04593781287575485    0.03771904734435534    0.03166066901527674    0.027245187495921794    
  0.02408677519662711    0.021911913029872318    0.02052036774656716    0.019761290087269894    0.01952701994353604    
  0.01974882583645552    0.020389260137004858    0.021436214682717506    0.02290079687625621    0.02481673355185825    
  0.027240900310348953    0.030257605287516583    0.03398682272137878    0.038589732426419256    0.044265943920072305    
  0.051254085341293845    0.059856956369066204    0.07048065853493649    0.08363677078570153    0.09988843743059393    
  0.11980404635390134    0.14397160533903008    0.1729896759478676    0.20728296235486168    0.24670782129329105    
  0.29000300780492694    0.3340912832406729    0.37347666924972683    0.4007435994447898    0.40929624488688493    
  0.3975079642824595    0.37090631328832635    0.33991805190967495    0.3149622054126209    0.3027633347764037    
  0.36334252771003356    0.35986841328961033    0.361300899303266    0.3624425193210496    0.35701737091180963    
  0.34050423004153996    0.31224268628143426    0.27533994437606335    0.23466605072446045    0.1946850844563986    
  0.15838654137926356    0.12724265756480746    0.1015801404606163    0.08101726550701303    0.0648641013195646    
  0.0523963048872694    0.04295305885048428    0.035933487147457574    0.03080074079701324    0.02711523910850605    
  0.024551013520016034    0.02287442614446052    0.02191191302987225    0.021532499791197274    0.021642607650879386    
  0.022181830186601355    0.023117876352900312    0.024442852274095983    0.026170278078500347    0.02833322540365436    
  0.030986185671972435    0.034210855322363086    0.038122438240728    0.04287190156014342    0.048642277744637294    
  0.05564788105180428    0.06415364419228374    0.07451004159059163    0.08716000442767781    0.1025878855855624    
  0.12125795574198835    0.14361283263393684    0.17009288265128492    0.20103592870586096    0.23639418959099298    
  0.2753510805530006    0.315918628574179    0.3545954890511918    0.38648345177938465    0.4065460086128504    
  0.4120079930175842    0.404390774151694    0.38928928050194933    0.37378608018605236    0.36334252771003356    
  0.382929177901727    0.37452826886014573    0.3653808574196557    0.3527971777392212    0.3340264103396225    
  0.3078644519152672    0.27533994437606335    0.23915083828583472    0.20245305777715303    0.16787683794965552    
  0.13712510256113894    0.11098199613908111    0.08950203195583542    0.0722843415309795    0.05875067958412529    
  0.048320613013394347    0.04045731106259147    0.03466192079818203    0.030489444523436025    0.027579919936645346    
  0.02566583218711489    0.024551013520016058    0.024086775196627098    0.02416014856339366    0.024688873652656148    
  0.025617563504189183    0.02691605628164922    0.028578358353497566    0.030618643274245905    0.03306756031380168    
  0.03597500309329054    0.03941746898518617    0.043502479668050584    0.04836695795744521    0.05417228467311649    
  0.06110304232321496    0.06938068874322968    0.07929180617928493    0.09119942776262342    0.10550347228562813    
  0.1225749696478913    0.14273219115917676    0.16626030624500573    0.19337009056877213    0.22401631050416304    
  0.25763789248599667    0.29293301882482276    0.3277131108372243    0.3589321922043625    0.38318885973474126    
  0.39788543420885214    0.4025470981784039    0.3992541271998901    0.391623439750561    0.382929177901727    
  0.3626610824910678    0.35162401936130105    0.3369843874952785    0.31798829069093015    0.294146758915746    
  0.26589388843625833    0.23466605072446045    0.20245305777715303    0.17121477843333527    0.14249087865641924    
  0.11725136416602039    0.09589827862155513    0.07836979088004303    0.06432016400251384    0.053299949663185145    
  0.04485732607278181    0.038561104242678786    0.03400613995201806    0.030836095439130705    0.028765782211209685    
  0.02757991993664538    0.02711523910850604    0.027245187495921818    0.02787191781533033    0.02892036048365029    
  0.03033512984331786    0.03208301514202452    0.03415531158224339    0.03656347472497169    0.039333553371073464    
  0.042508876492784196    0.04615814165423244    0.05037795673818908    0.05528746058615708    0.061022189082112946    
  0.06773345491135586    0.0755976649412689    0.08483636747074844    0.09572950514857893    0.10859201939857459    
  0.12371584414006565    0.1413259140983927    0.16157806563359634    0.18454618338811352    0.21012802607741482    
  0.23788984328509308    0.26693964476522913    0.2958736177140344    0.3228004637756052    0.3455349093738301    
  0.3620957753205677    0.3714010704241143    0.373696424507833    0.3702857970501476    0.3626610824910678    
  0.3177987886360136    0.30620487858554235    0.2904190341773147    0.2706609258644601    0.2474293027908198    
  0.22166974430397465    0.1946850844563986    0.16787683794965558    0.1424908786564192    0.11946346955905596    
  0.09936146694818879    0.08239121671388783    0.06847082998941606    0.05734399770401307    0.04868274311825767    
  0.0421426430395393    0.03738341099978862    0.03408664164814934    0.03197764453610459    0.03083609543913074    
  0.03048944452343607    0.03080074079701327    0.03166066901527671    0.032981150234684016    0.03468792405267255    
  0.03671844428540217    0.03902866486816337    0.041599629628300834    0.04443460690667744    0.04755248119751814    
  0.050988776237630554    0.05480229347088713    0.05907562437258332    0.06390744629774212    0.06940614023085918    
  0.07569052272885682    0.08289622306243535    0.09118717100521079    0.10076693668751312    0.1118704788476204    
  0.12472282583782571    0.13948563255012783    0.15622640412526623    0.17490708600105834    0.19535262240757556    
  0.21718627292132903    0.23976723906821543    0.26216305320599737    0.28316129419958047    0.3013508983846898    
  0.31534037366276024    0.324098548252613    0.3272296676178132    0.32495632056854573    0.3177987886360136    
  0.26463194671415097    0.2537310833594908    0.23921361167588212    0.22160085149489644    0.20162505532751007    
  0.18021315183740358    0.15838654137926353    0.1371251025611389    0.11725136416602035    0.09936146694818873    
  0.08380371886789367    0.07069878642148225    0.059991446289175805    0.05151337272389082    0.04503487125506527    
  0.04029920245660975    0.03704819004674959    0.03504475146153765    0.034086641648149334    0.034006139952018    
  0.034661920798182    0.035933487147457525    0.037719047344355223    0.039930258485416016    0.042484096663392576    
  0.045301613468449436    0.048317995167090746    0.05149400874257299    0.05481739472151183    0.05829686757770924    
  0.06195932268364638    0.0658515890257269    0.07003888438297277    0.07459829311067455    0.0796148249925896    
  0.08518348277082834    0.09141236356148769    0.09842508088831924    0.10636598036503242    0.1154013190428717    
  0.1256979240142464    0.13737534057485634    0.1504561683033517    0.16484142417508676    0.1803089657813114    
  0.19651295079981645    0.21297182333284823    0.2290502944679834    0.24395253134398284    0.2567579333838759    
  0.2665329692852649    0.27250590756670734    0.2742172125969431    0.27154905226306136    0.26463194671415097    
  0.2135488930906403    0.2038836764842767    0.19153049680088927    0.17700388765740976    0.16095846712345432    
  0.14412593630720488    0.1272426575648074    0.11098199613908108    0.0958982786215551    0.08239121671388779    
  0.0706987864214823    0.06091555248282501    0.053022924879597456    0.04691946933045995    0.04244920441876933    
  0.0394305879804227    0.03768384769328838    0.03704819004674962    0.037383410999788556    0.03856110424267872    
  0.040457311062591456    0.04295305885048423    0.0459378128757548    0.04930739195560183    0.052957064452368266    
  0.05678026528849647    0.06067968002048194    0.06458385350687103    0.06845621568105598    0.07229182610053651    
  0.07610829714977028    0.07993850582658356    0.08382711488165046    0.08783046132788572    0.09201967443518085    
  0.09648386684850843    0.10132744673105311    0.10666171509889855    0.1125999651881566    0.11925992320119973    
  0.12675916268310902    0.13518537983087495    0.14454776586451273    0.15474086794239708    0.16554450117748798    
  0.1766495219943251    0.18767821235341275    0.19818182961557743    0.20763099259456705    0.21543393002960337    
  0.2210020222080476    0.22384102455378616    0.22361927988609637    0.22018444750294291    0.2135488930906403    
  0.16921442002780232    0.16092482074758438    0.15083727705072383    0.13935912133850825    0.12698274166309528    
  0.11422406013133582    0.10158014046061632    0.08950203195583545    0.07836979088004303    0.06847082998941605    
  0.05999144628917584    0.053022924879597574    0.0475749566920862    0.04359275278846954    0.04098018302233918    
  0.03962713752157113    0.03943058798042273    0.04029920245660977    0.0421426430395393    0.04485732607278179    
  0.04832061301339432    0.052396304887269256    0.056944257275625326    0.061824330040975886    0.06689256734621683    
  0.07199872974153607    0.07699662415102913    0.08176702602854724    0.08623813218299704    0.09038731475071857    
  0.094223765674307    0.09776846782019469    0.10104835900306917    0.10410652662557376    0.10701614291361577    
  0.10988443402430463    0.1128416997934595    0.11602114273753    0.11954204504045893    0.12350553385175428    
  0.1279971995268092    0.13307828879745218    0.1387564144903208    0.14495237928191104    0.1514905037204556    
  0.15811898570204738    0.1645383257245174    0.17041536083084166    0.1753879881856888    0.17908431582000858    
  0.18116381034952458    0.18135760760718023    0.17948286349271242    0.17543854256049066    0.16921442002780232    
  0.13288655980782424    0.12591697286444944    0.11786054892541464    0.10900517126570176    0.09968863352434568    
  0.09025177193659195    0.08101726550701303    0.07228434153097958    0.06432016400251385    0.057343997704013085    
  0.05151337272389093    0.046919469330459956    0.0435927527884695    0.04151852647951109    0.04066005686719605    
  0.040980183022339134    0.04244920441876931    0.04503487125506528    0.04868274311825753    0.05329994966318507    
  0.058750679584125186    0.06486410131956438    0.07144871785443559    0.07830306620291085    0.08521641880630028    
  0.0919664579716271    0.0983309567947899    0.1041204093248607    0.10921323476429923    0.11356413509647595    
  0.11717831456946395    0.12007786387450978    0.1222924008426126    0.12387757823263512    0.12493672815195034    
  0.12562251239952038    0.12611733699374272    0.12660548470458816    0.12724867657830538    0.12817148764293235    
  0.1294582292525689    0.13115497160021655    0.13326531911180936    0.13573692040224042    0.1384504170782284    
  0.1412236862856079    0.14382957332097282    0.1460161808742236    0.1475272500125803    0.14812864010375337    
  0.14763646844764447    0.14592776929503543    0.1429254872954611    0.13858099075998687    0.13288655980782424    
  0.10412040932486108    0.09833095679479023    0.09196645797162752    0.08521641880630063    0.07830306620291112    
  0.07144871785443582    0.06486410131956458    0.05875067958412534    0.053299949663185145    0.04868274311825765    
  0.04503487125506536    0.04244920441876933    0.040980183022339134    0.040660056867196044    0.04151852647951109    
  0.043592752788469476    0.04691946933045991    0.05151337272389083    0.05734399770401297    0.06432016400251374    
  0.07228434153097937    0.08101726550701278    0.09025177193659165    0.0996886335243453    0.10900517126570129    
  0.11786054892541413    0.125916972864449    0.1328865598078238    0.13858099075998642    0.14292548729546065    
  0.14592776929503504    0.1476364684476442    0.14812864010375318    0.14752725001258005    0.14601618087422344    
  0.1438295733209726    0.14122368628560777    0.1384504170782283    0.1357369204022403    0.13326531911180928    
  0.1311549716002166    0.12945822925256897    0.12817148764293246    0.12724867657830555    0.12660548470458827    
  0.1261173369937429    0.12562251239952058    0.12493672815195052    0.12387757823263532    0.12229240084261286    
  0.12007786387451003    0.11717831456946423    0.11356413509647632    0.10921323476429957    0.10412040932486108    
  0.0817670260285475    0.07699662415102941    0.07199872974153636    0.06689256734621712    0.06182433004097603    
  0.05694425727562547    0.05239630488726937    0.04832061301339438    0.04485732607278184    0.04214264303953933    
  0.040299202456609846    0.039430587980422795    0.03962713752157115    0.04098018302233918    0.04359275278846955    
  0.04757495669208616    0.05302292487959744    0.05999144628917568    0.06847082998941591    0.07836979088004284    
  0.0895020319558352    0.10158014046061599    0.1142240601313354    0.1269827416630948    0.13935912133850772    
  0.15083727705072325    0.16092482074758382    0.1692144200278018    0.17543854256049013    0.17948286349271197    
  0.1813576076071799    0.18116381034952422    0.1790843158200083    0.17538798818568857    0.1704153608308414    
  0.16453832572451726    0.1581189857020473    0.15149050372045555    0.14495237928191101    0.13875641449032083    
  0.13307828879745226    0.12799719952680932    0.12350553385175442    0.11954204504045914    0.11602114273753021    
  0.1128416997934597    0.10988443402430484    0.10701614291361591    0.10410652662557394    0.10104835900306934    
  0.09776846782019491    0.09422376567430724    0.09038731475071875    0.08623813218299729    0.0817670260285475    
  0.06458385350687122    0.060679680020482164    0.056780265288496744    0.05295706445236848    0.04930739195560202    
  0.04593781287575488    0.04295305885048422    0.04045731106259151    0.038561104242678786    0.0373834109997886    
  0.03704819004674969    0.037683847693288385    0.0394305879804227    0.04244920441876929    0.04691946933045988    
  0.05302292487959737    0.060915552482824854    0.07069878642148207    0.08239121671388755    0.09589827862155484    
  0.1109819961390807    0.127242657564807    0.1441259363072044    0.16095846712345377    0.17700388765740924    
  0.1915304968008886    0.20388367648427608    0.2135488930906397    0.22018444750294236    0.22361927988609587    
  0.22384102455378582    0.22100202220804724    0.2154339300296031    0.2076309925945668    0.19818182961557726    
  0.18767821235341267    0.17664952199432504    0.1655445011774879    0.15474086794239708    0.1445477658645127    
  0.13518537983087506    0.12675916268310916    0.11925992320119988    0.11259996518815674    0.10666171509889869    
  0.10132744673105323    0.0964838668485086    0.09201967443518104    0.08783046132788586    0.08382711488165064    
  0.0799385058265837    0.07610829714977052    0.07229182610053675    0.06845621568105618    0.06458385350687122    
  0.05149400874257309    0.0483179951670909    0.045301613468449624    0.04248409666339266    0.03993025848541608    
  0.037719047344355286    0.03593348714745756    0.03466192079818203    0.034006139952018025    0.03408664164814934    
  0.035044751461537696    0.037048190046749634    0.04029920245660976    0.045034871255065285    0.05151337272389082    
  0.05999144628917563    0.07069878642148207    0.0838037188678934    0.09936146694818845    0.11725136416601997    
  0.13712510256113852    0.15838654137926303    0.18021315183740297    0.2016250553275094    0.22160085149489575    
  0.23921361167588143    0.25373108335949013    0.26463194671415036    0.27154905226306086    0.2742172125969426    
  0.27250590756670695    0.2665329692852646    0.25675793338387576    0.24395253134398265    0.2290502944679833    
  0.21297182333284817    0.19651295079981643    0.18030896578131142    0.16484142417508676    0.1504561683033518    
  0.13737534057485642    0.1256979240142466    0.11540131904287187    0.10636598036503264    0.09842508088831937    
  0.09141236356148782    0.0851834827708285    0.07961482499258966    0.07459829311067466    0.07003888438297287    
  0.06585158902572698    0.06195932268364645    0.05829686757770933    0.05481739472151198    0.05149400874257309    
  0.04159962962830089    0.039028664868163414    0.03671844428540229    0.03468792405267254    0.032981150234684016    
  0.03166066901527674    0.03080074079701326    0.03048944452343608    0.030836095439130764    0.031977644536104605    
  0.034086641648149396    0.037383410999788605    0.04214264303953929    0.04868274311825757    0.05734399770401297    
  0.06847082998941582    0.08239121671388763    0.09936146694818843    0.11946346955905561    0.14249087865641882    
  0.167876837949655    0.19468508445639804    0.22166974430397401    0.2474293027908191    0.2706609258644595    
  0.2904190341773141    0.3062048785855418    0.317798788636013    0.32495632056854523    0.32722966761781275    
  0.3240985482526126    0.31534037366276    0.3013508983846897    0.28316129419958036    0.26216305320599737    
  0.23976723906821534    0.21718627292132903    0.19535262240757564    0.1749070860010584    0.15622640412526634    
  0.13948563255012797    0.12472282583782592    0.11187047884762061    0.10076693668751327    0.09118717100521087    
  0.08289622306243542    0.07569052272885693    0.06940614023085925    0.06390744629774223    0.059075624372583416    
  0.05480229347088718    0.05098877623763062    0.04755248119751824    0.04443460690667751    0.04159962962830089    
  0.03415531158224338    0.032083015142024565    0.030335129843317914    0.028920360483650275    0.027871917815330306    
  0.027245187495921794    0.027115239108506044    0.027579919936645374    0.028765782211209685    0.03083609543913074    
  0.03400613995201805    0.03856110424267877    0.04485732607278178    0.053299949663185055    0.0643201640025137    
  0.07836979088004274    0.09589827862155488    0.11725136416602    0.14249087865641877    0.17121477843333477    
  0.2024530577771525    0.2346660507244598    0.2658938884362576    0.2941467589157453    0.3179882906909296    
  0.33698438749527804    0.35162401936130067    0.36266108249106743    0.3702857970501473    0.37369642450783264    
  0.3714010704241141    0.3620957753205675    0.34553490937382997    0.3228004637756051    0.2958736177140344    
  0.26693964476522924    0.23788984328509308    0.2101280260774149    0.1845461833881136    0.16157806563359647    
  0.14132591409839287    0.12371584414006585    0.10859201939857478    0.09572950514857904    0.08483636747074846    
  0.07559766494126895    0.06773345491135586    0.061022189082112946    0.055287460586157126    0.05037795673818908    
  0.04615814165423249    0.042508876492784196    0.03933355337107351    0.03656347472497181    0.03415531158224338    
  0.028578358353497636    0.026916056281649267    0.025617563504189218    0.024688873652656103    0.024160148563393616    
  0.024086775196627146    0.024551013520016044    0.025665832187114924    0.02757991993664539    0.03048944452343601    
  0.03466192079818203    0.04045731106259144    0.04832061301339421    0.058750679584125165    0.07228434153097933    
  0.08950203195583509    0.11098199613908077    0.1371251025611385    0.167876837949655    0.20245305777715245    
  0.23915083828583408    0.27533994437606274    0.30786445191526657    0.33402641033962194    0.35279717773922087    
  0.3653808574196555    0.37452826886014573    0.382929177901727    0.39162343975056096    0.39925412719989006    
  0.40254709817840384    0.3978854342088521    0.38318885973474126    0.3589321922043624    0.3277131108372243    
  0.29293301882482287    0.2576378924859968    0.22401631050416324    0.19337009056877222    0.1662603062450059    
  0.1427321911591769    0.12257496964789145    0.10550347228562823    0.09119942776262355    0.079291806179285    
  0.06938068874322964    0.06110304232321505    0.054172284673116584    0.04836695795744526    0.04350247966805063    
  0.03941746898518622    0.03597500309329059    0.03306756031380171    0.030618643274246043    0.028578358353497636    
  0.024442852274096007    0.02311787635290036    0.02218183018660145    0.021642607650879317    0.02153249979119725    
  0.02191191302987225    0.022874426144460495    0.024551013520016044    0.027115239108506068    0.03080074079701327    
  0.03593348714745756    0.042953058850484234    0.05239630488726919    0.0648641013195644    0.08101726550701278    
  0.1015801404606159    0.12724265756480704    0.15838654137926297    0.19468508445639804    0.23466605072445984    
  0.2753399443760627    0.3122426862814337    0.34050423004153957    0.3570173709118094    0.3624425193210497    
  0.36130089930326625    0.3598684132896109    0.363342527710034    0.37378608018605264    0.3892892805019494    
  0.4043907741516941    0.41200799301758423    0.4065460086128504    0.3864834517793847    0.354595489051192    
  0.3159186285741791    0.2753510805530008    0.23639418959099306    0.2010359287058611    0.17009288265128505    
  0.14361283263393704    0.12125795574198851    0.10258788558556253    0.08716000442767792    0.07451004159059162    
  0.06415364419228377    0.05564788105180435    0.04864227774463732    0.04287190156014349    0.03812243824072807    
  0.034210855322363155    0.030986185671972415    0.028333225403654454    0.026170278078500395    0.024442852274096007    
  0.021436214682717482    0.020389260137004858    0.01974882583645557    0.01952701994353606    0.019761290087269873    
  0.020520367746567205    0.021911913029872297    0.024086775196627216    0.02724518749592183    0.03166066901527676    
  0.03771904734435532    0.04593781287575476    0.05694425727562529    0.07144871785443561    0.09025177193659167    
  0.1142240601313354    0.14412593630720447    0.18021315183740308    0.22166974430397404    0.26589388843625766    
  0.3078644519152666    0.34050423004153957    0.35715598442913393    0.3555334808778732    0.34004351131348115    
  0.32001706449312894    0.30530606995176    0.3027633347764045    0.31496220541262143    0.33991805190967533    