#     DFTpy    
  CRYSTAL 
    
  PRIMVEC    
  5.018068965517241    0.0    0.0    
  0.0    5.018068965517241    0.0    
  0.0    0.0    5.018068965517241    
  PRIMCOORD    
  7    1    
  Si    0.0    0.0    0.0    
  Si    0.0    2.5090344827586204    2.5090344827586204    
  Si    1.2545172413793102    3.763551724137931    3.763551724137931    
  Si    2.5090344827586204    0.0    2.5090344827586204    
  Si    3.763551724137931    1.2545172413793102    3.763551724137931    
  Si    2.5090344827586204    2.5090344827586204    0.0    
  Si    3.763551724137931    3.763551724137931    1.2545172413793102    
  BEGIN_BLOCK_DATAGRID_3D    
  3d_datagrid_density    
  BEGIN_DATAGRID_3D#0    
  49    49    49    
  0.0    0.0    0.0    
  5.018068984234734    0.0    0.0    
  0.0    5.018068984234734    0.0    
  0.0    0.0    5.018068984234734    
  0.048066350012151246    0.05665978085197304    0.08462328766458498    0.13805463493575898    0.2168420083494198    
  0.3053432422469705    0.37592547076264604    0.4067590366492325    0.3955201107151766    0.35567970740571403    
  0.3037693907638506    0.25131093149027    0.2040738962121288    0.1641535837079582    0.131697759590539    
  0.10593441241207503    0.08583180279885666    0.07042523429839394    0.05886546586346134    0.050397724317266274    
  0.04438812644483442    0.04035448329029036    0.037957352680262985    0.03697435917681898    0.037283163318062446    
  0.03885090980578881    0.041729426438576855    0.0460605009769677    0.05208657871108053    0.060164161118568    
  0.07077807195191313    0.08453314977161938    0.10211017340192052    0.12423712414228945    0.15170936908027988    
  0.18532944557526582    0.22557508029330275    0.2719751606720467    0.3221562086628688    0.37021483685343354    
  0.40482467117825743    0.41024864479770207    0.37441335011710936    0.3009633972858308    0.21201875115111735    
  0.13433868392997791    0.08240106890968224    0.05568378935987221    0.048066350012151246    0.05665978085197294    
  0.06493391899668352    0.09285658250163879    0.14515210590211788    0.22021004499725175    0.30214669477085304    
  0.3651311727428681    0.3899617654032128    0.37578435095014034    0.3358139924734938    0.2854950275809749    
  0.2353696103795932    0.19062292768611705    0.153060659799974    0.12270467396980612    0.09874784599641362    
  0.08016749988764747    0.0660219132447783    0.0554894569269409    0.04784853463427077    0.042501742097887645    
  0.039000602459021975    0.03703222382365708    0.03639312788803521    0.03697435917681893    0.03875350772091058    
  0.041791186616287355    0.04623602500567476    0.052334584313229536    0.060444879383358685    0.07105325217344585    
  0.08477165044707258    0.10229841586156183    0.12438766012067062    0.15186162117091076    0.1855472985978283    
  0.2259545796818818    0.27267581520892276    0.3234737244579064    0.372709136544524    0.4094312541117076    
  0.4181172217981875    0.3862164244510882    0.3159994248014384    0.2281311537705109    0.14912417914227225    
  0.09462501686171822    0.06558348594466241    0.05665978085197294    0.08462328766458496    0.09285658250163872    
  0.12198735467551665    0.1736854602615988    0.24292466196606816    0.31305822814399237    0.36174609670357755    
  0.37495196106987594    0.35465772999632533    0.31355519035207435    0.26504033750163625    0.2178916923079377    
  0.17631097096760331    0.14166612093483896    0.11382307628980594    0.09196266999350952    0.07510982974794661    
  0.06237579060558884    0.05298332657201414    0.04625512508883405    0.0416411069616376    0.0387362299266443    
  0.037260462851320564    0.03703222382365706    0.03795735268026299    0.040024882634430624    0.04330453329500863    
  0.047950048821161904    0.05420673211854026    0.0624248010450288    0.07308163307880872    0.08678924072090596    
  0.10425998510856986    0.1262647997813502    0.15362789080071793    0.1871677360762294    0.22741309735430257    
  0.2740620623173777    0.3251744503473973    0.3757947288985357    0.41615698196011097    0.43189085395269067    
  0.4100772754016131    0.34995778919388904    0.26797938623510076    0.18877315182024149    0.1299724113558061    
  0.09619260136224428    0.08462328766458496    0.1380546349357589    0.14515210590211775    0.17368546026159878    
  0.2213044422076383    0.27931157348856794    0.3314280622712382    0.3605987529110772    0.35904292441316593    
  0.3314578958718099    0.2892480267435033    0.2430573527339955    0.19950507981533205    0.16164253549644284    
  0.13034420446269815    0.10531915938457018    0.08576422660668365    0.07078613739473039    0.05957464434827193    
  0.051412501755302355    0.04567683657424702    0.041871982174248444    0.0396403284818892    0.03873622992664425    
  0.03900060245902199    0.040354483290290316    0.0427978252962384    0.04640687670004457    0.05133544659671032    
  0.05782042103764647    0.06619568283996295    0.07692102648201775    0.09060150858943093    0.10795691553899117    
  0.1297612175727761    0.15681103977252212    0.1898763380942193    0.22947800596795812    0.27543321087990413    
  0.3261839712204063    0.3777030994336405    0.42197224182917875    0.44668295254327944    0.4393352726075619    
  0.3958746736323539    0.32676341334228154    0.2524892398997451    0.1916217776282055    0.153126982087783    
  0.1380546349357589    0.2168420083494198    0.22021004499725177    0.24292466196606816    0.279311573488568    
  0.3188287014357545    0.3477832360777583    0.35536934979149454    0.3392817391699096    0.30551985529064374    
  0.26328837215762446    0.2202302521657356    0.1808514256716877    0.1471229565319601    0.11946477015618007    
  0.09745955697021486    0.08035103236337825    0.06735270851883954    0.05774999652597088    0.05089826771678614    
  0.04623830508043511    0.04333311489226525    0.041871982174248534    0.0416411069616376    0.042501742097887645    
  0.0443881264448345    0.04730755233181431    0.05133665452560735    0.05662145772069139    0.06338265161065364    
  0.07193075941271505    0.08270041549085133    0.0962799488239204    0.11338396801592494    0.13477193290662548    
  0.16118530889652402    0.19330739115581877    0.23161486876752502    0.27602386824543773    0.32535295421550525    
  0.37652422515424344    0.4234369933355672    0.45643467567750357    0.46459931392892484    0.4417907101501797    
  0.3925034696218884    0.33123283639346685    0.2748698618858741    0.23514754939718382    0.2168420083494198    
  0.30534324224697046    0.30214669477085304    0.3130582281439925    0.33142806227123833    0.3477832360777582    
  0.3527573254288284    0.3411520097605043    0.31400558055402367    0.27690081269546046    0.23636680337597035    
  0.19733881020373575    0.1625965740349084    0.13325721756121567    0.10939069489146001    0.0905081319565594    
  0.07592974946774692    0.06498796720261242    0.05707026648499761    0.05161285983093673    0.04812770944210471    
  0.04623830508043502    0.04567683657424693    0.046255125088834025    0.04784853463427077    0.0503977243172663    
  0.053908939535958524    0.05844963172925083    0.06414905815612597    0.07120503367723814    0.07989985965927876    
  0.09063596961724953    0.10397130795834703    0.12059606710423894    0.14123636019599942    0.1665613025381001    
  0.19714421332141494    0.23338253055700403    0.2752451561679259    0.3218499593357044    0.37090803004329936    
  0.4180151355228    0.4561935225547129    0.47696322792096657    0.4739438558821093    0.4473672417549133    
  0.40550835388209927    0.3610741766341686    0.32548045726999475    0.30534324224697046    0.3759254707626461    
  0.3651311727428681    0.36174609670357755    0.36059875291107724    0.3553693497914945    0.3411520097605043    
  0.31649595155409077    0.2835750726533177    0.2465274361636675    0.20943239319322446    0.17518861546168038    
  0.14536923118632758    0.12050792503958042    0.10045495677054873    0.08471572094739857    0.07271079362604918    
  0.06389123007769885    0.057743760891733116    0.0537886724862876    0.051612859830936664    0.05089826771678607    
  0.051412501755302376    0.05298332657201409    0.05548945692694081    0.05886546586346144    0.06310286697533148    
  0.06824727556946528    0.07440154891096255    0.08173468112940982    0.09049709909013973    0.10105285280528296    
  0.11391493433847255    0.12972774864697406    0.14916804504131992    0.1728305173055308    0.20117832182739048    
  0.2345074363435194    0.272782878924568    0.3153137007007558    0.36036801879934294    0.40480109689724875    
  0.44383488361617957    0.4715334958175553    0.4826440304555082    0.47539871136575484    0.4532977748713696    
  0.42405429855483556    0.3962319791773022    0.3759254707626461    0.4067590366492325    0.3899617654032128    
  0.37495196106987605    0.35904292441316604    0.3392817391699096    0.3140055805540237    0.2835750726533177    
  0.24998914296158956    0.21585800059615695    0.18349527716975125    0.15449467420350058    0.1296826144086525    
  0.1092440034419839    0.0929332043528292    0.08031080648094494    0.07091124441104128    0.06429463394699478    
  0.06003816146497268    0.057743760891733026    0.05707026648499752    0.057749996525970765    0.05957464434827181    
  0.062375790605588725    0.06602191324477827    0.07042523429839384    0.07554508408417829    0.08138972641906761    
  0.08802367501789578    0.09557854960827314    0.10426704073849799    0.11440911764756835    0.12646239592661035    
  0.14101042726118673    0.15867330493490664    0.17998505883242014    0.20532287118755238    0.2348813924787703    
  0.26857438500324116    0.3058028221668752    0.3451922874772443    0.3844347143872175    0.4202868715312896    
  0.4488479561747235    0.4663985912266108    0.4708254331030773    0.46290067286706543    0.4463202671002809    
  0.426176256500685    0.4067590366492325    0.39552011071517656    0.37578435095014034    0.35465772999632533    
  0.3314578958718099    0.3055198552906438    0.27690081269546046    0.24652743616366757    0.21585800059615684    
  0.18641319565774186    0.15944954750710022    0.13581222809720384    0.11590097966801244    0.09972543041849317    
  0.08704174898352127    0.07750666962626918    0.0707677367825976    0.06647852656658867    0.06429463394699482    
  0.06389123007769888    0.06498796720261235    0.0673527085188395    0.07078613739473034    0.07510982974794654    
  0.08016749988764747    0.08583180279885656    0.09201089485395626    0.09865751238041501    0.10578184676580404    
  0.11346453159214481    0.12187039430763436    0.13126978396496908    0.1420618164548923    0.15476652239674604    
  0.16995280304037128    0.1881213621628694    0.20960886500655104    0.23453931513779508    0.26275904349916107    
  0.2936965438317416    0.32620970439713104    0.3585460405695143    0.3884513218641052    0.4133872044368827    
  0.4309023036356409    0.4392463894698471    0.43806879126252085    0.4287080503136077    0.4136749133574324    
  0.39552011071517656    0.355679707405714    0.33581399247349375    0.31355519035207435    0.28924802674350336    
  0.26328837215762435    0.2363668033759703    0.20943239319322446    0.1834952771697512    0.15944954750710022    
  0.13798102871911272    0.1195254946638712    0.10425756717270938    0.09213053843308286    0.08296277258341915    
  0.0765188304843436    0.07254412754820866    0.07076773678259765    0.07091124441104137    0.07271079362604924    
  0.07592974946774693    0.08035103236337812    0.08576422660668369    0.09196266999350952    0.09874784599641358    
  0.10593441241207494    0.11335921206659877    0.12089859895418154    0.1284891495539734    0.13614535428254074    
  0.14397572302121914    0.1522009543102826    0.16116852806466594    0.17134497175471325    0.18326357877039526    
  0.19742533433462534    0.21418483828013304    0.23365910298759643    0.2556598737633834    0.27962809291667917    
  0.30459019343400046    0.3291948842813518    0.3518415335840414    0.37084048135789427    0.38458137147240007    
  0.39177886723656047    0.39181672457390043    0.3850046504105648    0.37247462334887044    0.355679707405714    
  0.30376939076385057    0.2854950275809748    0.2650403375016363    0.24305735273399556    0.22023025216573555    
  0.19733881020373573    0.17518861546168038    0.1544946742035006    0.13581222809720384    0.11952549466387116    
  0.10585813798981299    0.09489076641821632    0.08659357217068774    0.08086719186652705    0.07756887873352945    
  0.0765188304843436    0.07750666962626922    0.080310806480945    0.0847157209473986    0.09050813195655934    
  0.0974595569702147    0.10531915938457018    0.11382307628980587    0.12270467396980607    0.1316977595905389    
  0.1405449842428586    0.1490221834151869    0.15697174463906013    0.16433277422545003    0.17116342154473393    
  0.1776533599079497    0.18412313200572578    0.19100933245502527    0.19883049663385263    0.20811714390508138    
  0.21929725211170745    0.23256352335865793    0.24777333472753502    0.2644180679897932    0.281667502294147    
  0.29847177807855735    0.3136826327154808    0.3261491324026172    0.33478655652673056    0.33868156014387446    
  0.33727871442579205    0.33056743731184973    0.31909979768773883    0.30376939076385057    0.25131093149026995    
  0.23536961037959309    0.2178916923079377    0.19950507981533205    0.1808514256716876    0.1625965740349084    
  0.14536923118632755    0.12968261440865245    0.11590097966801244    0.10425756717270943    0.09489076641821631    
  0.08787219335475009    0.08322174907977468    0.08091219881891186    0.08086719186652705    0.08296277258341916    
  0.08704174898352125    0.09293320435282924    0.10045495677054872    0.10939069489145997    0.11946477015617998    
  0.1303442044626981    0.1416661209348389    0.1530606597999739    0.16415358370795813    0.1745679186137031    
  0.1839513010062191    0.1920299082465576    0.19866598761030155    0.20389337543776834    0.20791709145928086    
  0.21108330114312424    0.2138447065660387    0.2167375315347905    0.22034591069563408    0.22520813044708007    
  0.23166309933683532    0.23970847737917142    0.24895936835434512    0.25873256126069405    0.2681973342079635    
  0.2765038355192568    0.28284267110242584    0.28646437601134495    0.2867294479739468    0.2832242210383652    
  0.2758886303179057    0.26504968616560315    0.25131093149026995    0.20407389621212885    0.19062292768611705    
  0.17631097096760337    0.1616425354964429    0.14712295653196006    0.1332572175612157    0.12050792503958047    
  0.1092440034419839    0.09972543041849316    0.09213053843308291    0.08659357217068771    0.08322174907977474    
  0.08208890581682038    0.08322174907977471    0.08659357217068771    0.09213053843308286    0.09972543041849316    
  0.10924400344198389    0.12050792503958047    0.13325721756121567    0.14712295653196003    0.16164253549644286    
  0.1763109709676033    0.19062292768611705    0.2040738962121288    0.21614490837331862    0.22632589136111006    
  0.2341998334886824    0.23954871563974117    0.24241477678522266    0.2430814407817874    0.24199863014950698    
  0.23971352237945795    0.23684409312156685    0.23406708826548112    0.2320522775105481    0.2313152569020424    
  0.2320522775105481    0.23406708826548117    0.23684409312156685    0.23971352237945795    0.24199863014950712    
  0.24308144078178748    0.2424147767852228    0.23954871563974123    0.23419983348868242    0.22632589136111012    
  0.21614490837331868    0.20407389621212885    0.16415358370795816    0.15306065979997396    0.14166612093483896    
  0.13034420446269815    0.11946477015618003    0.10939069489146001    0.10045495677054873    0.09293320435282913    
  0.08704174898352124    0.08296277258341922    0.08086719186652705    0.0809121988189119    0.0832217490797747    
  0.08787219335475008    0.09489076641821627    0.10425756717270934    0.1159009796680124    0.12968261440865242    
  0.14536923118632752    0.16259657403490835    0.1808514256716875    0.19950507981533197    0.21789169230793762    
  0.23536961037959314    0.25131093149026984    0.26504968616560304    0.2758886303179056    0.2832242210383651    
  0.28672944797394667    0.2864643760113447    0.2828426711024257    0.27650383551925667    0.26819733420796343    
  0.25873256126069405    0.24895936835434507    0.23970847737917153    0.23166309933683535    0.22520813044708    
  0.22034591069563414    0.21673753153479045    0.21384470656603877    0.21108330114312443    0.2079170914592809    
  0.20389337543776848    0.19866598761030163    0.19202990824655763    0.18395130100621923    0.17456791861370316    
  0.16415358370795816    0.131697759590539    0.12270467396980603    0.11382307628980597    0.10531915938457022    
  0.09745955697021477    0.09050813195655937    0.08471572094739861    0.08031080648094495    0.07750666962626919    
  0.0765188304843436    0.07756887873352945    0.08086719186652708    0.08659357217068771    0.09489076641821628    
  0.10585813798981299    0.11952549466387112    0.13581222809720384    0.15449467420350058    0.17518861546168038    
  0.19733881020373567    0.22023025216573552    0.24305735273399545    0.2650403375016362    0.28549502758097484    
  0.30376939076385046    0.3190997976877388    0.33056743731184973    0.33727871442579194    0.3386815601438744    
  0.3347865565267304    0.32614913240261717    0.3136826327154807    0.29847177807855735    0.281667502294147    
  0.2644180679897932    0.24777333472753507    0.23256352335865801    0.21929725211170745    0.20811714390508143    
  0.19883049663385263    0.19100933245502533    0.184123132005726    0.17765335990794978    0.171163421544734    
  0.1643327742254501    0.1569717446390602    0.14902218341518692    0.1405449842428587    0.131697759590539    
  0.10593441241207496    0.09874784599641355    0.09196266999350954    0.0857642266066837    0.08035103236337812    
  0.07592974946774696    0.0727107936260492    0.07091124441104131    0.07076773678259764    0.07254412754820867    
  0.07651883048434358    0.0829627725834192    0.09213053843308285    0.10425756717270938    0.11952549466387113    
  0.1379810287191127    0.1594495475071002    0.1834952771697512    0.20943239319322446    0.23636680337597024    
  0.26328837215762435    0.2892480267435032    0.3135551903520743    0.3358139924734937    0.35567970740571386    
  0.3724746233488703    0.3850046504105648    0.39181672457390043    0.3917788672365604    0.38458137147239985    
  0.3708404813578942    0.35184153358404124    0.32919488428135174    0.30459019343400057    0.2796280929166792    
  0.2556598737633834    0.23365910298759654    0.21418483828013302    0.1974253343346254    0.18326357877039523    
  0.17134497175471325    0.16116852806466606    0.1522009543102827    0.14397572302121925    0.13614535428254076    
  0.12848914955397342    0.12089859895418162    0.1133592120665988    0.10593441241207496    0.08583180279885656    
  0.08016749988764746    0.07510982974794661    0.07078613739473039    0.0673527085188395    0.06498796720261239    
  0.06389123007769885    0.06429463394699472    0.06647852656658869    0.07076773678259765    0.07750666962626916    
  0.0870417489835213    0.09972543041849313    0.1159009796680124    0.13581222809720384    0.1594495475071002    
  0.1864131956577418    0.21585800059615684    0.2465274361636675    0.27690081269546046    0.30551985529064374    
  0.3314578958718098    0.3546577299963253    0.37578435095014034    0.39552011071517645    0.41367491335743234    
  0.4287080503136076    0.43806879126252085    0.439246389469847    0.4309023036356408    0.41338720443688265    
  0.3884513218641052    0.3585460405695143    0.32620970439713115    0.2936965438317417    0.2627590434991611    
  0.23453931513779513    0.20960886500655107    0.18812136216286945    0.1699528030403713    0.15476652239674615    
  0.1420618164548924    0.13126978396496913    0.12187039430763438    0.11346453159214491    0.10578184676580402    
  0.09865751238041508    0.0920108948539563    0.08583180279885656    0.07042523429839387    0.0660219132447783    
  0.062375790605588795    0.05957464434827188    0.057749996525970744    0.05707026648499752    0.05774376089173305    
  0.06003816146497256    0.06429463394699471    0.0709112444110413    0.0803108064809449    0.09293320435282916    
  0.10924400344198386    0.12968261440865242    0.15449467420350055    0.18349527716975111    0.2158580005961568    
  0.2499891429615895    0.2835750726533177    0.31400558055402367    0.33928173916990956    0.35904292441316593    
  0.374951961069876    0.3899617654032129    0.4067590366492326    0.42617625650068497    0.4463202671002809    
  0.4629006728670655    0.4708254331030773    0.4663985912266108    0.44884795617472345    0.4202868715312896    
  0.3844347143872175    0.34519228747724445    0.3058028221668752    0.2685743850032412    0.2348813924787703    
  0.2053228711875524    0.17998505883242022    0.15867330493490667    0.14101042726118673    0.12646239592661043    
  0.11440911764756838    0.10426704073849792    0.09557854960827321    0.08802367501789587    0.08138972641906761    
  0.07554508408417832    0.07042523429839387    0.05886546586346134    0.05548945692694076    0.05298332657201409    
  0.051412501755302424    0.05089826771678607    0.05161285983093669    0.0537886724862876    0.05774376089173298    
  0.06389123007769883    0.07271079362604922    0.08471572094739856    0.10045495677054876    0.1205079250395804    
  0.14536923118632747    0.1751886154616803    0.20943239319322438    0.24652743616366743    0.2835750726533177    
  0.31649595155409077    0.3411520097605043    0.3553693497914945    0.36059875291107724    0.36174609670357766    
  0.3651311727428682    0.3759254707626461    0.39623197917730213    0.42405429855483556    0.4532977748713696    
  0.47539871136575473    0.4826440304555081    0.4715334958175552    0.44383488361617945    0.4048010968972488    
  0.3603680187993431    0.3153137007007559    0.27278287892456804    0.23450743634351942    0.20117832182739045    
  0.17283051730553084    0.1491680450413199    0.12972774864697406    0.11391493433847273    0.10105285280528303    
  0.09049709909013978    0.08173468112940996    0.07440154891096255    0.06824727556946535    0.06310286697533149    
  0.05886546586346134    0.050397724317266274    0.047848534634270704    0.046255125088834025    0.04567683657424702    
  0.04623830508043499    0.0481277094421048    0.051612859830936664    0.057070266484997474    0.06498796720261232    
  0.07592974946774692    0.09050813195655931    0.10939069489146001    0.1332572175612156    0.1625965740349083    
  0.19733881020373564    0.23636680337597024    0.2769008126954604    0.31400558055402367    0.3411520097605043    
  0.35275732542882854    0.3477832360777582    0.33142806227123833    0.3130582281439925    0.3021466947708532    
  0.3053432422469705    0.32548045726999486    0.3610741766341687    0.40550835388209916    0.4473672417549131    
  0.4739438558821093    0.47696322792096646    0.4561935225547129    0.4180151355228    0.3709080300432996    
  0.3218499593357043    0.27524515616792605    0.23338253055700403    0.19714421332141494    0.16656130253810006    
  0.14123636019599942    0.120596067104239    0.10397130795834711    0.09063596961724962    0.0798998596592788    
  0.07120503367723828    0.06414905815612597    0.05844963172925083    0.053908939535958544    0.050397724317266274    
  0.04438812644483448    0.042501742097887665    0.04164110696163757    0.04187198217424849    0.043333114892265226    
  0.04623830508043513    0.05089826771678614    0.05774999652597081    0.0673527085188395    0.08035103236337819    
  0.09745955697021479    0.11946477015618005    0.14712295653196006    0.1808514256716876    0.22023025216573555    
  0.26328837215762435    0.30551985529064374    0.3392817391699096    0.35536934979149454    0.34778323607775835    
  0.3188287014357546    0.2793115734885681    0.2429246619660683    0.22021004499725189    0.2168420083494199    
  0.23514754939718377    0.2748698618858742    0.33123283639346685    0.3925034696218884    0.4417907101501794    
  0.46459931392892484    0.4564346756775037    0.4234369933355672    0.37652422515424366    0.32535295421550536    
  0.2760238682454379    0.23161486876752502    0.19330739115581874    0.1611853088965241    0.13477193290662542    
  0.11338396801592501    0.09627994882392048    0.08270041549085139    0.07193075941271505    0.06338265161065369    
  0.05662145772069144    0.0513366545256073    0.047307552331814294    0.04438812644483448    0.0403544832902903    
  0.03900060245902197    0.03873622992664428    0.03964032848188923    0.041871982174248444    0.04567683657424702    
  0.05141250175530233    0.05957464434827181    0.0707861373947303    0.08576422660668365    0.10531915938457008    
  0.1303442044626981    0.1616425354964428    0.19950507981533197    0.2430573527339954    0.2892480267435032    
  0.33145789587180974    0.35904292441316593    0.36059875291107724    0.33142806227123844    0.27931157348856805    
  0.22130444220763837    0.17368546026159895    0.14515210590211794    0.138054634935759    0.153126982087783    
  0.1916217776282056    0.2524892398997451    0.3267634133422815    0.39587467363235374    0.4393352726075618    
  0.4466829525432795    0.42197224182917886    0.3777030994336406    0.32618397122040643    0.2754332108799042    
  0.22947800596795814    0.18987633809421925    0.1568110397725222    0.12976121757277606    0.10795691553899121    
  0.09060150858943111    0.07692102648201772    0.06619568283996291    0.05782042103764654    0.0513354465967103    
  0.04640687670004458    0.042797825296238434    0.0403544832902903    0.037957352680262985    0.037032223823657076    
  0.037260462851320626    0.03873622992664433    0.04164110696163752    0.04625512508883405    0.05298332657201409    
  0.062375790605588656    0.07510982974794651    0.09196266999350952    0.11382307628980584    0.14166612093483896    
  0.17631097096760326    0.21789169230793756    0.2650403375016362    0.3135551903520743    0.3546577299963253    
  0.374951961069876    0.36174609670357766    0.3130582281439925    0.24292466196606827    0.17368546026159884    
  0.12198735467551669    0.0928565825016388    0.08462328766458498    0.09619260136224428    0.12997241135580603    
  0.18877315182024143    0.26797938623510065    0.3499577891938888    0.410077275401613    0.4318908539526906    
  0.41615698196011097    0.37579472889853593    0.32517445034739734    0.2740620623173778    0.2274130973543025    
  0.18716773607622933    0.153627890800718    0.1262647997813501    0.10425998510856992    0.0867892407209061    
  0.07308163307880876    0.06242480104502871    0.05420673211854033    0.04795004882116184    0.04330453329500859    
  0.040024882634430645    0.037957352680262985    0.03697435917681898    0.036393127888035205    0.03703222382365711    
  0.03900060245902201    0.042501742097887665    0.04784853463427084    0.05548945692694086    0.06602191324477825    
  0.08016749988764743    0.09874784599641358    0.12270467396980603    0.15306065979997396    0.190622927686117    
  0.23536961037959309    0.2854950275809747    0.3358139924734936    0.37578435095014034    0.3899617654032128    
  0.36513117274286827    0.3021466947708532    0.22021004499725183    0.14515210590211794    0.0928565825016388    
  0.06493391899668366    0.05665978085197305    0.06558348594466236    0.09462501686171823    0.14912417914227225    
  0.22813115377051082    0.3159994248014381    0.3862164244510881    0.41811722179818744    0.40943125411170767    
  0.3727091365445242    0.32347372445790645    0.27267581520892287    0.22595457968188176    0.18554729859782837    
  0.15186162117091076    0.12438766012067062    0.1022984158615619    0.08477165044707259    0.07105325217344594    
  0.060444879383358616    0.052334584313229605    0.04623602500567478    0.041791186616287404    0.03875350772091055    
  0.03697435917681898    0.037283163318062466    0.03697435917681891    0.03795735268026298    0.040354483290290365    
  0.0443881264448344    0.050397724317266274    0.05886546586346146    0.07042523429839374    0.08583180279885662    
  0.10593441241207506    0.13169775959053892    0.16415358370795816    0.2040738962121288    0.2513109314902699    
  0.30376939076385057    0.355679707405714    0.3955201107151765    0.40675903664923263    0.37592547076264615    
  0.3053432422469706    0.21684200834941986    0.138054634935759    0.084623287664585    0.056659780851973145    
  0.04806635001215126    0.05568378935987216    0.08240106890968218    0.1343386839299779    0.21201875115111724    
  0.3009633972858306    0.37441335011710924    0.410248644797702    0.40482467117825743    0.3702148368534336    
  0.32215620866286887    0.2719751606720468    0.22557508029330275    0.18532944557526582    0.15170936908027996    
  0.12423712414228945    0.10211017340192062    0.08453314977161949    0.0707780719519132    0.060164161118567976    
  0.05208657871108058    0.04606050097696774    0.041729426438576855    0.03885090980578886    0.037283163318062466    
  0.0388509098057889    0.03875350772091058    0.040024882634430645    0.04279782529623847    0.04730755233181426    
  0.05390893953595859    0.06310286697533156    0.07554508408417826    0.09201089485395621    0.11335921206659877    
  0.14054498424285863    0.17456791861370322    0.21614490837331857    0.2650496861656031    0.3190997976877388    
  0.3724746233488703    0.41367491335743234    0.42617625650068497    0.39623197917730224    0.3254804572699949    
  0.23514754939718382    0.1531269820877831    0.09619260136224426    0.06558348594466243    0.055683789359872095    