#     DFTpy    
  CRYSTAL 
    
  PRIMVEC    
  4.56868965517241    0.0    0.0    
  0.0    4.56868965517241    0.0    
  0.0    0.0    4.56868965517241    
  PRIMCOORD    
  7    1    
  Si    0.0    0.0    0.0    
  Si    0.0    2.2843448275862106    2.2843448275862106    
  Si    1.1421724137931002    3.4265172413793104    3.4265172413793104    
  Si    2.2843448275862106    0.0    2.2843448275862106    
  Si    3.4265172413793104    1.1421724137931002    3.4265172413793104    
  Si    2.2843448275862106    2.2843448275862106    0.0    
  Si    3.4265172413793104    3.4265172413793104    1.1421724137931002    
  BEGIN_BLOCK_DATAGRID_3D    
  3d_datagrid_density    
  BEGIN_DATAGRID_3D#0    
  49    49    49    
  0.0    0.0    0.0    
  4.56868967221371    0.0    0.0    
  0.0    4.56868967221371    0.0    
  0.0    0.0    4.56868967221371    
  0.04867476823760325    0.05570646515470869    0.07930449408402594    0.12479407238605857    0.19489009960442513    
  0.28219506999091215    0.3671667877826064    0.42684830925476536    0.44807017550667605    0.43299341220608284    
  0.3937619509921796    0.34370219398358737    0.2923022321822161    0.24475021641643177    0.20331346953468987    
  0.168590509272439    0.14028710296031624    0.11772579298790217    0.10015808981988795    0.08687800647650472    
  0.07723216432182937    0.07064045675921153    0.06664426289257183    0.06493642375142294    0.06535480045492248    
  0.06786287666347633    0.07254197768917924    0.07960123148971311    0.0893953373041987    0.10242430194400451    
  0.11929376364429355    0.14065785092943797    0.1671905024722705    0.1995606095235027    0.23829100597539715    
  0.28341788064527934    0.3339715645483701    0.38720474807391747    0.43734584667282866    0.47428849066266565    
  0.48432207752549583    0.45561072102839295    0.38725943860501677    0.29425907299209175    0.2009950088995651    
  0.1273632103886651    0.08019638453145772    0.05595138326085037    0.04867476823760325    0.055706465154708625    
  0.0620646386877451    0.08505569708676816    0.1290026224475381    0.195489998336328    0.276683266807588    
  0.35404169218423753    0.406710307508345    0.4233872664129755    0.40682591498302884    0.3685756489589392    
  0.3209410065233103    0.2725595322098062    0.22810061779115065    0.1895631571473927    0.15742357319275432    
  0.13135033649873323    0.11067671848489222    0.09468674655921377    0.08271373280748885    0.07414454755181726    
  0.06843709705680413    0.06516518541307958    0.06404648005843633    0.06493642375142268    0.06781058437057705    
  0.07275885139061498    0.07999748670586104    0.08988968328933512    0.10294858326243699    0.11979892739014518    
  0.14111655406139215    0.16759419495011704    0.1999176500693    0.23863710605328403    0.28384170246103374    
  0.33464766372321236    0.38843387366027143    0.4396164122090531    0.4783350831875485    0.4910467054282039    
  0.465690188638886    0.40051935796101334    0.3093451364509116    0.21586267612991378    0.1403308504582723    
  0.0906656157358796    0.06430622185062271    0.055706465154708625    0.07930449408402598    0.08505569708676824    
  0.10854926614817346    0.15208564995267945    0.2147215363556616    0.28722115069261    0.35237110823036527    
  0.39292447991079904    0.401020015651347    0.38067258734517667    0.3425777096120382    0.29740165624038895    
  0.25242374384932725    0.21151645230670454    0.17629344329817392    0.14707270593040914    0.12348723320408722    
  0.10489967281703537    0.0906467708792679    0.08011500771340437    0.07273997895294708    0.06802492189441764    
  0.06558376991671801    0.06516518541307934    0.06664426289257139    0.07000569130156192    0.07534075714062388    
  0.08286326963965633    0.09293523044598967    0.10607565057383533    0.12292461425526156    0.14417674600553926    
  0.17053596344988783    0.20269075022061928    0.24120540643222482    0.286225305799801    0.3369961886523753    
  0.3911595099993317    0.443646905406796    0.485435299350466    0.5038298817679459    0.48673582144864885    
  0.4306074115498874    0.34611364235961306    0.2545216682286945    0.17623452437720732    0.12155324904910042    
  0.09058923107373937    0.07930449408402598    0.1247940723860584    0.12900262244753807    0.15208564995267945    
  0.19357652217460933    0.24941318993620198    0.30909569996068414    0.35763938639752735    0.3824673562066316    
  0.37971461492946196    0.3545578433937021    0.3164012048087439    0.2738530037242861    0.23257624803145205    
  0.19552602658753293    0.16388450655444467    0.1378002511977349    0.11687815064472735    0.10052462348842185    
  0.08814138253182009    0.07917503778313105    0.07311402895681775    0.06951117835173631    0.06802492189441749    
  0.06843709705680376    0.07064045675921098    0.07462250305209513    0.08046659352243542    0.08837329148052628    
  0.09869239010490165    0.11193886314201053    0.1287607043520719    0.14986597055733783    0.17596307096917255    
  0.20773187885648564    0.24573776567810304    0.29017778667222893    0.34044717908257444    0.39452801067140253    
  0.4480779539953012    0.4933488806964717    0.519142382212255    0.5138729563192903    0.47205827210096896    
  0.4000670174969053    0.3150276279445357    0.23631728536819793    0.1767095373527304    0.14001958441284978    
  0.1247940723860584    0.1948900996044251    0.1954899983363279    0.21472153635566152    0.24941318993620204    
  0.2930138525821721    0.33498649389797497    0.36366961738387993    0.3713887845992117    0.35769446806944166    
  0.32815706400160055    0.2904106102463703    0.25085607688933526    0.213548613079466    0.18055950231875123    
  0.15266047842027994    0.12984598211762963    0.11170834397238796    0.09771026098431439    0.08732445982253705    
  0.08005881611690338    0.07545447147024471    0.07311402895681757    0.07273997895294679    0.0741445475518167    
  0.07723216432182867    0.08198416192964378    0.088464745732725    0.09684850913869726    0.107459289735527    
  0.12079413181713158    0.13749695321859895    0.15828103417599476    0.18385336563132484    0.21487677939863464    
  0.25190463951816733    0.2951733602271429    0.34422468041440457    0.3973963724574493    0.4511347854354857    
  0.49916349472041294    0.5322418370579086    0.5400472360772238    0.5158922322045829    0.46189260837556706    
  0.389948900893877    0.316623563103667    0.25578352690033523    0.21466765389612943    0.1948900996044251    
  0.28219506999091226    0.2766832668075881    0.28722115069261    0.30909569996068426    0.33498649389797497    
  0.35595276839566714    0.3642157692576313    0.3562151500582161    0.3335584954950367    0.3012482351596704    
  0.26488918493074826    0.2288333530021336    0.19575036650355512    0.16696645733609417    0.14290820903377355    
  0.12345035338563518    0.10819483281660905    0.09667178001211264    0.08842654457847833    0.08302544491113074    
  0.08005881611690317    0.07917503778313076    0.0801150077134038    0.08271373280748817    0.08687800647650383    
  0.092571748912055    0.09982628979533523    0.10877400357091215    0.11969462212006042    0.1330485437461129    
  0.14945905515918492    0.1696337095020277    0.1942730249828234    0.22401797502127116    0.25939886291613135    
  0.3006754135165526    0.3475192891889168    0.3985962930039454    0.45108090240300946    0.5001083009478977    
  0.5385198196164321    0.5578632197336595    0.5514119474383072    0.5181753196180728    0.4649145297001872    
  0.40393522154456524    0.34799329730531    0.3060585593932162    0.28219506999091226    0.36716678778260636    
  0.35404169218423764    0.35237110823036527    0.35763938639752735    0.36366961738388    0.36421576925763127    
  0.35501294379122456    0.3351624037703082    0.3068945641334698    0.27400697151694053    0.24019386044847035    
  0.20816151249384565    0.1795272218878288    0.1550521937905798    0.13490113027217582    0.11887245101439009    
  0.1066010628799632    0.09769188231263845    0.09176045960397874    0.08842654457847816    0.0873244598225366    
  0.08814138253181958    0.09064677087926708    0.09468674655921282    0.10015808981988673    0.10699344986789835    
  0.11517427741983904    0.12477019112018195    0.13599398116533487    0.14924612180941954    0.16510834812779018    
  0.18426832240165172    0.2074155140485688    0.23516984980368516    0.26803532657853296    0.30628373097997774    
  0.34969943637756745    0.39723558553691    0.44667354058948233    0.4943190227814043    0.5348641912602881    
  0.5618954212728686    0.5696155430724419    0.555517428629169    0.522419403101627    0.47808269454669095    
  0.4323489767805962    0.39369586030025594    0.36716678778260636    0.42684830925476525    0.4067103075083451    
  0.3929244799107989    0.3824673562066315    0.37138878459921176    0.356215150058216    0.3351624037703082    
  0.3085679555310695    0.2783612509615045    0.2470379919036112    0.2168087929688547    0.1892318770664511    
  0.16520766815703475    0.14510437842621712    0.12890850241536578    0.11638573927137147    0.10722211883188441    
  0.10109774974576151    0.09769188231263812    0.09667178001211207    0.09771026098431354    0.10052462348842091    
  0.10489967281703416    0.11067671848489082    0.11772579298790056    0.12593041209962594    0.13520171257268632    
  0.14552333798051537    0.15701636702157534    0.169996249512942    0.1849795390517608    0.20261677752368404    
  0.223582050286329    0.24848296699737774    0.27780877951196487    0.31184668558966283    0.35048614337868195    
  0.39293513422815257    0.43746285111569283    0.48125206843557733    0.520404831576355    0.5502660226925317    
  0.5663580314626242    0.5659417184966947    0.5495145865953095    0.5211602506949324    0.4872668284565387    
  0.4542983890463397    0.42684830925476525    0.44807017550667605    0.4233872664129755    0.401020015651347    
  0.37971461492946196    0.3576944680694418    0.33355849549503663    0.3068945641334697    0.27836125096150455    
  0.24929961745138707    0.22119575826832102    0.19529482189742706    0.17244743026620057    0.153106269694189    
  0.1373891232245298    0.1251808303144735    0.11625238124140216    0.1103501539786711    0.10722211883188404    
  0.10660106287996243    0.1081948328166081    0.11170834397238667    0.11687815064472591    0.12348723320408568    
  0.13135033649873143    0.14028710296031424    0.15010801587460532    0.16063034662436973    0.17172900208323402    
  0.18341153767368734    0.1958867846871404    0.20958484229250368    0.22510310294291125    0.2430991333816225    
  0.26418729600925345    0.28887245137371675    0.3174806633195224    0.35001183234504313    0.3859085415107791    
  0.42384208479142466    0.4616330592542223    0.4963505868376227    0.5246065850696532    0.5431153839363131    
  0.5495436460139483    0.5434012277734449    0.5264526252301072    0.502257263809786    0.4749802689666076    
  0.44807017550667605    0.4329934122060826    0.4068259149830288    0.38067258734517645    0.35455784339370205    
  0.3281570640016004    0.30124823515967025    0.2740069715169404    0.24703799190361114    0.22119575826832097    
  0.19734540285591617    0.17618634923739976    0.1581698439940788    0.14348933305892972    0.13212497162130604    
  0.12392666493794778    0.11870011351359017    0.11625238124140183    0.11638573927137082    0.11887245101438916    
  0.12345035338563386    0.1298459821176281    0.13780025119773312    0.14707270593040708    0.15742357319275205    
  0.16859050927243655    0.18027994324368157    0.19218868371619097    0.2040622651740945    0.21577885179126977    
  0.22742710698228333    0.23933877090649483    0.2520524297239386    0.2662195678492745    0.2824948531911844    
  0.30144786228637366    0.3234857705353016    0.3487345499005502    0.3768557590662333    0.4068654301389905    
  0.43707221192735757    0.4652028848776187    0.4886974999743668    0.5051254559982351    0.5126769408758227    
  0.5106301170055118    0.4995994915548528    0.48138152717141874    0.4584013650690802    0.4329934122060826    
  0.39376195099217964    0.36857564895893924    0.3425777096120382    0.316401204808744    0.29041061024637044    
  0.2648891849307483    0.24019386044847035    0.2168087929688548    0.19529482189742714    0.17618634923739987    
  0.15989558762205963    0.14665946287927276    0.13653917642307287    0.12946586917522354    0.12530851803754342    
  0.12392666493794738    0.12518083031447275    0.12890850241536467    0.13490113027217426    0.1429082090337718    
  0.15266047842027783    0.16388450655444237    0.17629344329817137    0.18956315714738992    0.20331346953468682    
  0.21711053822048088    0.23050094705711566    0.2430806235478325    0.25458624823514175    0.26498028211401164    
  0.274497041004645    0.28362898557328786    0.2930526925426646    0.30351604442566504    0.3157193820837748    
  0.3302072629278224    0.3472541686589506    0.36672316873260347    0.3879266623597919    0.4095748981266354    
  0.42988780098003004    0.4468665109247178    0.4586461768164608    0.46383501227966556    0.46176528200615313    
  0.45259846027460493    0.43724561935486406    0.41711426802311197    0.39376195099217964    0.3437021939835873    
  0.32094100652331037    0.29740165624038895    0.2738530037242861    0.25085607688933526    0.22883335300213353    
  0.20816151249384554    0.18923187706645112    0.17244743026620066    0.15816984399407874    0.14665946287927262    
  0.13804696800402272    0.13234906945152083    0.12951377988205592    0.12946586917522312    0.13212497162130518    
  0.13738912322452868    0.14510437842621557    0.15505219379057786    0.16696645733609197    0.18055950231874868    
  0.19552602658753018    0.21151645230670135    0.2281006177911472    0.24475021641642816    0.2608559451110903    
  0.27578165123747556    0.28894913263729866    0.29993854036629414    0.30858194361388436    0.3150268852593045    
  0.3197499472996782    0.3235047790424765    0.3272033243229947    0.3317556373537628    0.33791009295497726    
  0.3461200476265794    0.3564346054084725    0.3684138657024231    0.38110588600615153    0.39314054051496145    
  0.40295344740644407    0.4090800252122442    0.410421650775369    0.40640997522905875    0.39704887417718143    
  0.38285210446406426    0.3647076777728333    0.3437021939835873    0.2923022321822161    0.2725595322098063    
  0.2524237438493272    0.2325762480314522    0.21354861307946613    0.19575036650355518    0.17952722188782883    
  0.16520766815703486    0.1531062696941891    0.14348933305892983    0.1365391764230729    0.13234906945152095    
  0.13095059715610582    0.13234906945152053    0.13653917642307212    0.14348933305892847    0.15310626969418747    
  0.1652076681570328    0.17952722188782638    0.19575036650355232    0.21354861307946288    0.23257624803144877    
  0.25242374384932353    0.2725595322098024    0.2923022321822121    0.31084633087695435    0.3273385688502324    
  0.3409873751083482    0.35118408697741127    0.3576167275066706    0.3603588588142564    0.35991128311742115    
  0.3571668090085759    0.3532778279284852    0.34944562561349335    0.34669457706884127    0.34569966812179836    
  0.34669457706884177    0.3494456256134943    0.35327782792848644    0.3571668090085778    0.35991128311742343    
  0.3603588588142593    0.3576167275066739    0.3511840869774148    0.340987375108352    0.3273385688502364    
  0.3108463308769584    0.2923022321822161    0.24475021641643174    0.22810061779115065    0.21151645230670443    
  0.19552602658753304    0.18055950231875123    0.16696645733609417    0.15505219379057983    0.14510437842621712    
  0.1373891232245298    0.13212497162130607    0.12946586917522343    0.12951377988205598    0.13234906945152047    
  0.13804696800402189    0.14665946287927145    0.158169843994077    0.1724474302661985    0.18923187706644848    
  0.20816151249384265    0.2288333530021303    0.25085607688933165    0.2738530037242824    0.2974016562403849    
  0.32094100652330615    0.3437021939835829    0.3647076777728291    0.38285210446406004    0.39704887417717744    
  0.406409975229055    0.4104216507753658    0.40908002521224135    0.402953447406442    0.39314054051495995    
  0.38110588600615064    0.3684138657024227    0.35643460540847255    0.3461200476265799    0.3379100929549783    
  0.331755637353764    0.3272033243229963    0.32350477904247865    0.31974994729968065    0.3150268852593074    
  0.3085819436138875    0.2999385403662975    0.28894913263730215    0.2757816512374792    0.26085594511109406    
  0.24475021641643174    0.20331346953468982    0.1895631571473927    0.17629344329817395    0.1638845065544447    
  0.1526604784202799    0.14290820903377358    0.1349011302721758    0.1289085024153658    0.12518083031447344    
  0.1239266649379478    0.12530851803754336    0.12946586917522318    0.13653917642307206    0.14665946287927145    
  0.15989558762205802    0.17618634923739765    0.19529482189742461    0.21680879296885175    0.24019386044846708    
  0.2648891849307447    0.29041061024636655    0.3164012048087401    0.3425777096120341    0.3685756489589351    
  0.39376195099217537    0.4171142680231078    0.43724561935486    0.45259846027460116    0.4617652820061498    
  0.46383501227966256    0.4586461768164585    0.44686651092471624    0.42988780098002893    0.4095748981266351    
  0.387926662359792    0.3667231687326039    0.34725416865895153    0.3302072629278238    0.3157193820837766    
  0.3035160444256669    0.29305269254266697    0.28362898557329025    0.2744970410046479    0.2649802821140146    
  0.2545862482351448    0.2430806235478356    0.23050094705711882    0.217110538220484    0.20331346953468982    
  0.16859050927243904    0.15742357319275435    0.14707270593040914    0.13780025119773506    0.12984598211762952    
  0.12345035338563518    0.11887245101439013    0.11638573927137162    0.11625238124140218    0.11870011351359017    
  0.12392666493794731    0.13212497162130524    0.14348933305892841    0.158169843994077    0.17618634923739762    
  0.19734540285591337    0.22119575826831794    0.24703799190360767    0.27400697151693687    0.30124823515966664    
  0.3281570640015968    0.3545578433936985    0.3806725873451731    0.40682591498302545    0.43299341220607945    
  0.4584013650690769    0.48138152717141547    0.4995994915548498    0.510630117005509    0.5126769408758203    
  0.5051254559982332    0.4886974999743658    0.4652028848776183    0.43707221192735773    0.40686543013899124    
  0.37685575906623436    0.3487345499005517    0.3234857705353036    0.3014478622863756    0.28249485319118645    
  0.266219567849277    0.25205242972394104    0.23933877090649752    0.227427106982286    0.21577885179127249    
  0.20406226517409723    0.19218868371619377    0.18027994324368415    0.16859050927243904    0.14028710296031624    
  0.13135033649873323    0.1234872332040872    0.11687815064472727    0.11170834397238794    0.10819483281660895    
  0.10660106287996313    0.10722211883188446    0.11035015397867114    0.11625238124140186    0.12518083031447264    
  0.13738912322452865    0.1531062696941874    0.17244743026619844    0.19529482189742461    0.22119575826831783    
  0.24929961745138368    0.27836125096150094    0.3068945641334663    0.33355849549503347    0.357694468069439    
  0.37971461492945985    0.40102001565134526    0.42338726641297403    0.4480701755066746    0.4749802689666061    
  0.5022572638097842    0.5264526252301053    0.5434012277734431    0.5495436460139469    0.543115383936312    
  0.5246065850696527    0.49635058683762284    0.4616330592542232    0.42384208479142593    0.3859085415107808    
  0.3500118323450451    0.3174806633195246    0.2888724513737189    0.26418729600925567    0.24309913338162495    
  0.2251031029429137    0.20958484229250604    0.19588678468714277    0.18341153767368976    0.17172900208323627    
  0.160630346624372    0.15010801587460748    0.14028710296031624    0.11772579298790223    0.11067671848489222    
  0.10489967281703534    0.10052462348842185    0.09771026098431439    0.09667178001211262    0.09769188231263848    
  0.10109774974576155    0.10722211883188414    0.11638573927137082    0.1289085024153646    0.14510437842621554    
  0.16520766815703278    0.18923187706644848    0.21680879296885175    0.24703799190360767    0.27836125096150105    
  0.30856795553106603    0.33516240377030526    0.356215150058214    0.37138878459921076    0.3824673562066316    
  0.39292447991079993    0.4067103075083462    0.42684830925476636    0.45429838904634035    0.4872668284565388    
  0.5211602506949321    0.5495145865953087    0.565941718496694    0.566358031462624    0.5502660226925319    
  0.5204048315763558    0.48125206843557905    0.43746285111569483    0.3929351342281547    0.3504861433786843    
  0.3118466855896653    0.2778087795119674    0.24848296699738012    0.22358205028633132    0.20261677752368643    
  0.1849795390517631    0.16999624951294418    0.1570163670215775    0.1455233379805173    0.1352017125726881    
  0.1259304120996276    0.11772579298790223    0.10015808981988798    0.0946867465592139    0.0906467708792679    
  0.08814138253182024    0.08732445982253703    0.08842654457847837    0.09176045960397872    0.09769188231263824    
  0.10660106287996254    0.1188724510143891    0.13490113027217432    0.15505219379057794    0.1795272218878264    
  0.20816151249384265    0.2401938604484671    0.2740069715169368    0.30689456413346633    0.33516240377030526    
  0.3550129437912228    0.36421576925763116    0.36366961738388126    0.35763938639753    0.35237110823036877    
  0.35404169218424125    0.3671667877826097    0.3936958603002585    0.4323489767805981    0.478082694546692    
  0.5224194031016272    0.555517428629169    0.5696155430724421    0.5618954212728694    0.5348641912602895    
  0.4943190227814065    0.4466735405894848    0.39723558553691257    0.3496994363775702    0.30628373097998046    
  0.2680353265785356    0.2351698498036876    0.2074155140485712    0.18426832240165397    0.16510834812779224    
  0.1492461218094215    0.13599398116533665    0.12477019112018359    0.11517427741984068    0.1069934498678997    
  0.10015808981988798    0.0868780064765047    0.08271373280748891    0.08011500771340441    0.07917503778313116    
  0.08005881611690331    0.08302544491113074    0.08842654457847816    0.0966717800121121    0.10819483281660806    
  0.12345035338563393    0.14290820903377177    0.16696645733609192    0.1957503665035523    0.2288333530021303    
  0.2648891849307447    0.30124823515966653    0.33355849549503347    0.356215150058214    0.36421576925763116    
  0.3559527683956691    0.3349864938979786    0.3090956999606892    0.2872211506926154    0.27668326680759325    
  0.28219506999091676    0.30605855939321974    0.34799329730531264    0.40393522154456674    0.4649145297001879    
  0.5181753196180731    0.5514119474383077    0.5578632197336606    0.538519819616434    0.5001083009479003    
  0.45108090240301235    0.39859629300394844    0.34751928918892    0.3006754135165556    0.25939886291613395    
  0.22401797502127355    0.19427302498282578    0.1696337095020297    0.14945905515918678    0.13304854374611458    
  0.11969462212006202    0.10877400357091349    0.09982628979533653    0.0925717489120561    0.0868780064765047    
  0.07723216432182933    0.0741445475518172    0.0727399789529471    0.07311402895681782    0.07545447147024467    
  0.08005881611690319    0.0873244598225366    0.09771026098431357    0.11170834397238677    0.12984598211762813    
  0.1526604784202778    0.18055950231874862    0.21354861307946285    0.2508560768893316    0.2904106102463666    
  0.3281570640015967    0.3576944680694391    0.37138878459921076    0.3636696173838813    0.33498649389797874    
  0.2930138525821773    0.24941318993620806    0.21472153635566732    0.1954899983363331    0.19489009960442935    
  0.21466765389613257    0.25578352690033757    0.31662356310366824    0.3899489008938772    0.46189260837556667    
  0.515892232204583    0.5400472360772246    0.5322418370579103    0.49916349472041566    0.45113478543548885    
  0.3973963724574525    0.34422468041440796    0.29517336022714585    0.25190463951816994    0.21487677939863695    
  0.18385336563132704    0.1582810341759967    0.1374969532186007    0.12079413181713297    0.10745928973552829    
  0.09684850913869832    0.0884647457327261    0.08198416192964454    0.07723216432182933    0.07064045675921152    
  0.06843709705680406    0.06802492189441763    0.06951117835173634    0.07311402895681743    0.07917503778313068    
  0.08814138253181958    0.10052462348842087    0.11687815064472586    0.13780025119773312    0.1638845065544422    
  0.19552602658753004    0.2325762480314487    0.27385300372428223    0.31640120480874    0.3545578433936985    
  0.37971461492945985    0.38246735620663164    0.35763938639752996    0.3090956999606892    0.24941318993620806    
  0.19357652217461524    0.15208564995268462    0.12900262244754224    0.12479407238606158    0.14001958441285195    
  0.17670953735273168    0.236317285368198    0.3150276279445349    0.40006701749690404    0.472058272100968    
  0.5138729563192908    0.5191423822122564    0.4933488806964744    0.4480779539953045    0.3945280106714059    
  0.3404471790825778    0.29017778667223193    0.24573776567810576    0.207731878856488    0.17596307096917466    
  0.14986597055733947    0.12876070435207337    0.11193886314201186    0.09869239010490274    0.08837329148052726    
  0.08046659352243628    0.07462250305209568    0.07064045675921152    0.06664426289257179    0.06516518541307957    
  0.06558376991671785    0.06802492189441746    0.07273997895294673    0.08011500771340377    0.09064677087926701    
  0.10489967281703415    0.12348723320408553    0.14707270593040714    0.17629344329817123    0.2115164523067013    
  0.2524237438493234    0.29740165624038484    0.3425777096120342    0.3806725873451732    0.4010200156513453    
  0.3929244799107998    0.3523711082303687    0.28722115069261545    0.21472153635566732    0.1520856499526846    
  0.10854926614817732    0.08505569708677105    0.07930449408402782    0.09058923107374026    0.12155324904910052    
  0.17623452437720627    0.25452166822869227    0.34611364235961023    0.43060741154988524    0.48673582144864797    
  0.5038298817679469    0.4854352993504683    0.44364690540679913    0.39115950999933485    0.3369961886523785    
  0.286225305799804    0.24120540643222751    0.2026907502206214    0.17053596344988975    0.14417674600554087    
  0.1229246142552629    0.10607565057383656    0.09293523044599059    0.08286326963965701    0.07534075714062463    
  0.07000569130156233    0.06664426289257179    0.06493642375142286    0.06404648005843633    0.0651651854130793    
  0.06843709705680386    0.07414454755181663    0.08271373280748812    0.0946867465592128    0.1106767184848909    
  0.13135033649873146    0.15742357319275205    0.18956315714738978    0.2281006177911472    0.2725595322098023    
  0.32094100652330615    0.3685756489589352    0.4068259149830254    0.42338726641297403    0.4067103075083462    
  0.35404169218424125    0.27668326680759325    0.1954899983363331    0.1290026224475422    0.08505569708677109    
  0.06206463868774688    0.055706465154709554    0.06430622185062275    0.09066561573587871    0.14033085045827018    
  0.21586267612991036    0.30934513645090744    0.40051935796101    0.46569018863888423    0.49104670542820406    
  0.47833508318755064    0.4396164122090561    0.38843387366027454    0.3346476637232156    0.2838417024610366    
  0.23863710605328653    0.19991765006930212    0.16759419495011882    0.14111655406139353    0.11979892739014644    
  0.10294858326243794    0.08988968328933594    0.07999748670586165    0.07275885139061546    0.06781058437057724    
  0.06493642375142286    0.06535480045492252    0.06493642375142276    0.06664426289257139    0.07064045675921111    
  0.07723216432182865    0.08687800647650383    0.10015808981988683    0.11772579298790059    0.14028710296031424    
  0.16859050927243655    0.20331346953468682    0.24475021641642816    0.292302232182212    0.343702193983583    
  0.39376195099217554    0.43299341220607945    0.4480701755066746    0.42684830925476647    0.3671667877826097    
  0.2821950699909168    0.19489009960442938    0.12479407238606165    0.07930449408402784    0.055706465154709624    
  0.04867476823760333    0.0559513832608495    0.08019638453145579    0.12736321038866186    0.20099500889956018    
  0.29425907299208615    0.38725943860501194    0.4556107210283901    0.4843220775254953    0.4742884906626674    
  0.4373458466728315    0.3872047480739206    0.33397156454837323    0.28341788064528206    0.2382910059753994    
  0.19956060952350457    0.16719050247227218    0.14065785092943917    0.11929376364429467    0.10242430194400529    
  0.08939533730419937    0.07960123148971356    0.0725419776891796    0.06786287666347647    0.06535480045492252    
  0.06786287666347617    0.06781058437057695    0.07000569130156174    0.07462250305209511    0.08198416192964364    
  0.09257174891205498    0.10699344986789831    0.1259304120996258    0.15010801587460534    0.1802799432436816    
  0.2171105382204808    0.26085594511109034    0.3108463308769542    0.3647076777728289    0.41711426802310786    
  0.4584013650690768    0.4749802689666061    0.45429838904634023    0.3936958603002585    0.30605855939321974    
  0.21466765389613268    0.140019584412852    0.0905892310737403    0.06430622185062275    0.055951383260849315    
  0.06306793754275697    0.0879568133542111    0.13596884319012506    0.20979830909092162    0.30194180124055703    