
     Program PWSCF v.6.5 starts on 30Mar2023 at 17:24:40 

     This program is part of the open-source Quantum ESPRESSO suite
     for quantum simulation of materials; please cite
         "P. Giannozzi et al., J. Phys.:Condens. Matter 21 395502 (2009);
         "P. Giannozzi et al., J. Phys.:Condens. Matter 29 465901 (2017);
          URL http://www.quantum-espresso.org", 
     in publications or presentations arising from this work. More details at
     http://www.quantum-espresso.org/quote

     Serial version
     Reading input from /home/valeria/Documents/DFTPY/Fitting_densities/Si7-CD/DATA2/Si22.in
Warning: card &IONS ignored
Warning: card / ignored
Warning: card &CELL ignored
Warning: card / ignored
Warning: card &FCP ignored
Warning: card / ignored
Warning: card &RISM ignored
Warning: card / ignored

     Current dimensions of program PWSCF are:
     Max number of different atomic species (ntypx) = 10
     Max number of k-points (npk) =  40000
     Max angular momentum in pseudopotentials (lmaxx) =  3

     WARNING: check_stop already initialized
     Message from routine setup:
     using ibrav=0 with symmetry is DISCOURAGED, use correct ibrav instead

     G-vector sticks info
     --------------------
     sticks:   dense  smooth     PW     G-vecs:    dense   smooth      PW
     Sum        3149    3149    877               133819   133819   19549



     bravais-lattice index     =            0
     lattice parameter (alat)  =      12.8796  a.u.
     unit-cell volume          =    2136.5165 (a.u.)^3
     number of atoms/cell      =            7
     number of atomic types    =            1
     number of electrons       =        28.00
     number of Kohn-Sham states=           18
     kinetic-energy cutoff     =      60.0000  Ry
     charge density cutoff     =     240.0000  Ry
     convergence threshold     =      1.0E-06
     mixing beta               =       0.7000
     number of iterations used =            8  plain     mixing
     Exchange-correlation= LDA
                           (   1   1   0   0   0   0   0)

     celldm(1)=  12.879591  celldm(2)=   0.000000  celldm(3)=   0.000000
     celldm(4)=   0.000000  celldm(5)=   0.000000  celldm(6)=   0.000000

     crystal axes: (cart. coord. in units of alat)
               a(1) = (   1.000000   0.000000   0.000000 )  
               a(2) = (   0.000000   1.000000   0.000000 )  
               a(3) = (   0.000000   0.000000   1.000000 )  

     reciprocal axes: (cart. coord. in units 2 pi/alat)
               b(1) = (  1.000000  0.000000  0.000000 )  
               b(2) = (  0.000000  1.000000  0.000000 )  
               b(3) = (  0.000000  0.000000  1.000000 )  


     PseudoPot. # 1 for Si read from file:
     /home/valeria/Desktop/programs/dftpy/examples/ofpp/EAC/upf/blps/si.lda.upf
     MD5 check sum: 946fc5a8d23174f015515f8139e499ed
     Pseudo is Norm-conserving, Zval =  4.0
     DFTpy
     Using radial grid of 1601 points,  1 beta functions with: 
                l(1) =   0

     atomic species   valence    mass     pseudopotential
        Si             4.00    28.08000     Si( 1.00)

     24 Sym. Ops. (no inversion) found (18 have fractional translation)



   Cartesian axes

     site n.     atom                  positions (alat units)
         1           Si  tau(   1) = (   0.0000000   0.0000000   0.0000000  )
         2           Si  tau(   2) = (   0.0000000   0.5000000   0.5000000  )
         3           Si  tau(   3) = (   0.2500000   0.7500000   0.7500000  )
         4           Si  tau(   4) = (   0.5000000   0.0000000   0.5000000  )
         5           Si  tau(   5) = (   0.7500000   0.2500000   0.7500000  )
         6           Si  tau(   6) = (   0.5000000   0.5000000   0.0000000  )
         7           Si  tau(   7) = (   0.7500000   0.7500000   0.2500000  )

     number of k points=   220  Gaussian smearing, width (Ry)=  0.0050

     Number of k-points >= 100: set verbosity='high' to print them.

     Dense  grid:   133819 G-vectors     FFT dimensions: (  64,  64,  64)

     Estimated max dynamical RAM per process >       1.10 GB

     Initial potential from superposition of free atoms

     starting charge   27.99552, renormalised to   28.00000
     Starting wfcs are random

     total cpu time spent up to now is       88.6 secs

     Self-consistent Calculation

     iteration #  1     ecut=    60.00 Ry     beta= 0.70
     Davidson diagonalization with overlap
     ethr =  1.00E-02,  avg # of iterations =  7.9

     Threshold (ethr) on eigenvalues was too large:
     Diagonalizing with lowered threshold

     Davidson diagonalization with overlap
     ethr =  3.37E-04,  avg # of iterations =  2.4

     total cpu time spent up to now is     1069.0 secs

     total energy              =     -55.46054154 Ry
     Harris-Foulkes estimate   =     -55.50326742 Ry
     estimated scf accuracy    <       0.09499774 Ry

     iteration #  2     ecut=    60.00 Ry     beta= 0.70
     Davidson diagonalization with overlap
     ethr =  3.39E-04,  avg # of iterations =  2.9

     total cpu time spent up to now is     1351.9 secs

     total energy              =     -55.46599712 Ry
     Harris-Foulkes estimate   =     -55.50194952 Ry
     estimated scf accuracy    <       0.07265093 Ry

     iteration #  3     ecut=    60.00 Ry     beta= 0.70
     Davidson diagonalization with overlap
     ethr =  2.59E-04,  avg # of iterations =  2.0

     total cpu time spent up to now is     1602.7 secs

     total energy              =     -55.48283915 Ry
     Harris-Foulkes estimate   =     -55.48415828 Ry
     estimated scf accuracy    <       0.00362612 Ry

     iteration #  4     ecut=    60.00 Ry     beta= 0.70
     Davidson diagonalization with overlap
     ethr =  1.30E-05,  avg # of iterations =  5.5

     total cpu time spent up to now is     1927.4 secs

     total energy              =     -55.48380656 Ry
     Harris-Foulkes estimate   =     -55.48409209 Ry
     estimated scf accuracy    <       0.00072081 Ry

     iteration #  5     ecut=    60.00 Ry     beta= 0.70
     Davidson diagonalization with overlap
     ethr =  2.57E-06,  avg # of iterations =  4.9

     total cpu time spent up to now is     2171.9 secs

     total energy              =     -55.48381078 Ry
     Harris-Foulkes estimate   =     -55.48387871 Ry
     estimated scf accuracy    <       0.00012017 Ry

     iteration #  6     ecut=    60.00 Ry     beta= 0.70
     Davidson diagonalization with overlap
     ethr =  4.29E-07,  avg # of iterations =  3.0

     total cpu time spent up to now is     2492.8 secs

     total energy              =     -55.48385917 Ry
     Harris-Foulkes estimate   =     -55.48388242 Ry
     estimated scf accuracy    <       0.00005598 Ry

     iteration #  7     ecut=    60.00 Ry     beta= 0.70
     Davidson diagonalization with overlap
     ethr =  2.00E-07,  avg # of iterations =  2.0

     total cpu time spent up to now is     2735.8 secs

     total energy              =     -55.48386639 Ry
     Harris-Foulkes estimate   =     -55.48386701 Ry
     estimated scf accuracy    <       0.00000136 Ry

     iteration #  8     ecut=    60.00 Ry     beta= 0.70
     Davidson diagonalization with overlap
     ethr =  4.85E-09,  avg # of iterations =  4.0

     total cpu time spent up to now is     3101.4 secs

     End of self-consistent calculation

     Number of k-points >= 100: set verbosity='high' to print the bands.

     the Fermi energy is     0.2049 ev

!    total energy              =     -55.48386720 Ry
     Harris-Foulkes estimate   =     -55.48386745 Ry
     estimated scf accuracy    <       0.00000033 Ry

     The total energy is the sum of the following terms:

     one-electron contribution =      -5.29031659 Ry
     hartree contribution      =       8.02902956 Ry
     xc contribution           =     -14.54589914 Ry
     ewald contribution        =     -43.67602636 Ry
     smearing contrib. (-TS)   =      -0.00065466 Ry

     convergence has been achieved in   8 iterations

 Energies determined by pw2casino tool
 -------------------------------------
 Kinetic energy      8.4835345903864638       au  =     16.967069180772928       Ry
 Local energy       -11.128692885205737       au  =    -22.257385770411474       Ry
 Non-Local energy    0.0000000000000000       au  =     0.0000000000000000       Ry
 Ewald energy       -21.838013182445600       au  =    -43.676026364891200       Ry
 xc contribution    -7.2729495724656008       au  =    -14.545899144931202       Ry
 hartree energy      4.0145147803162651       au  =     8.0290295606325301       Ry
 Smearing (-TS)     -3.2732822930626397E-004  au  =    -6.5465645861252793E-004  Ry
 Total energy       -27.741933597587870       au  =    -55.483867195175741       Ry
 -------------------------------------
 Total energy0      -27.741933597643516       au  =    -55.483867195287033       Ry
 External energy0    0.0000000000000000       au  =     0.0000000000000000       Ry
 -------------------------------------


     Writing output data file ./si.save/
