
     Program PWSCF v.6.5 starts on 30Mar2023 at 18:16:29 

     This program is part of the open-source Quantum ESPRESSO suite
     for quantum simulation of materials; please cite
         "P. Giannozzi et al., J. Phys.:Condens. Matter 21 395502 (2009);
         "P. Giannozzi et al., J. Phys.:Condens. Matter 29 465901 (2017);
          URL http://www.quantum-espresso.org", 
     in publications or presentations arising from this work. More details at
     http://www.quantum-espresso.org/quote

     Serial version
     Reading input from /home/valeria/Documents/DFTPY/Fitting_densities/Si7-CD/DATA2/Si23.in
Warning: card &IONS ignored
Warning: card / ignored
Warning: card &CELL ignored
Warning: card / ignored
Warning: card &FCP ignored
Warning: card / ignored
Warning: card &RISM ignored
Warning: card / ignored

     Current dimensions of program PWSCF are:
     Max number of different atomic species (ntypx) = 10
     Max number of k-points (npk) =  40000
     Max angular momentum in pseudopotentials (lmaxx) =  3

     WARNING: check_stop already initialized
     Message from routine setup:
     using ibrav=0 with symmetry is DISCOURAGED, use correct ibrav instead

     G-vector sticks info
     --------------------
     sticks:   dense  smooth     PW     G-vecs:    dense   smooth      PW
     Sum        3281    3281    885               140761   140761   20341



     bravais-lattice index     =            0
     lattice parameter (alat)  =      13.0919  a.u.
     unit-cell volume          =    2243.9195 (a.u.)^3
     number of atoms/cell      =            7
     number of atomic types    =            1
     number of electrons       =        28.00
     number of Kohn-Sham states=           18
     kinetic-energy cutoff     =      60.0000  Ry
     charge density cutoff     =     240.0000  Ry
     convergence threshold     =      1.0E-06
     mixing beta               =       0.7000
     number of iterations used =            8  plain     mixing
     Exchange-correlation= LDA
                           (   1   1   0   0   0   0   0)

     celldm(1)=  13.091892  celldm(2)=   0.000000  celldm(3)=   0.000000
     celldm(4)=   0.000000  celldm(5)=   0.000000  celldm(6)=   0.000000

     crystal axes: (cart. coord. in units of alat)
               a(1) = (   1.000000   0.000000   0.000000 )  
               a(2) = (   0.000000   1.000000   0.000000 )  
               a(3) = (   0.000000   0.000000   1.000000 )  

     reciprocal axes: (cart. coord. in units 2 pi/alat)
               b(1) = (  1.000000  0.000000  0.000000 )  
               b(2) = (  0.000000  1.000000  0.000000 )  
               b(3) = (  0.000000  0.000000  1.000000 )  


     PseudoPot. # 1 for Si read from file:
     /home/valeria/Desktop/programs/dftpy/examples/ofpp/EAC/upf/blps/si.lda.upf
     MD5 check sum: 946fc5a8d23174f015515f8139e499ed
     Pseudo is Norm-conserving, Zval =  4.0
     DFTpy
     Using radial grid of 1601 points,  1 beta functions with: 
                l(1) =   0

     atomic species   valence    mass     pseudopotential
        Si             4.00    28.08000     Si( 1.00)

     24 Sym. Ops. (no inversion) found (18 have fractional translation)



   Cartesian axes

     site n.     atom                  positions (alat units)
         1           Si  tau(   1) = (   0.0000000   0.0000000   0.0000000  )
         2           Si  tau(   2) = (   0.0000000   0.5000000   0.5000000  )
         3           Si  tau(   3) = (   0.2500000   0.7500000   0.7500000  )
         4           Si  tau(   4) = (   0.5000000   0.0000000   0.5000000  )
         5           Si  tau(   5) = (   0.7500000   0.2500000   0.7500000  )
         6           Si  tau(   6) = (   0.5000000   0.5000000   0.0000000  )
         7           Si  tau(   7) = (   0.7500000   0.7500000   0.2500000  )

     number of k points=   220  Gaussian smearing, width (Ry)=  0.0050

     Number of k-points >= 100: set verbosity='high' to print them.

     Dense  grid:   140761 G-vectors     FFT dimensions: (  72,  72,  72)

     Estimated max dynamical RAM per process >       1.17 GB

     Initial potential from superposition of free atoms

     starting charge   27.99552, renormalised to   28.00000
     Starting wfcs are random

     total cpu time spent up to now is      116.3 secs

     Self-consistent Calculation

     iteration #  1     ecut=    60.00 Ry     beta= 0.70
     Davidson diagonalization with overlap
     ethr =  1.00E-02,  avg # of iterations =  7.9

     Threshold (ethr) on eigenvalues was too large:
     Diagonalizing with lowered threshold

     Davidson diagonalization with overlap
     ethr =  3.54E-04,  avg # of iterations =  2.4

     total cpu time spent up to now is     1417.3 secs

     total energy              =     -55.38726652 Ry
     Harris-Foulkes estimate   =     -55.43345574 Ry
     estimated scf accuracy    <       0.09936938 Ry

     iteration #  2     ecut=    60.00 Ry     beta= 0.70
     Davidson diagonalization with overlap
     ethr =  3.55E-04,  avg # of iterations =  3.2

     total cpu time spent up to now is     1813.1 secs

     total energy              =     -55.39225134 Ry
     Harris-Foulkes estimate   =     -55.43459379 Ry
     estimated scf accuracy    <       0.08815273 Ry

     iteration #  3     ecut=    60.00 Ry     beta= 0.70
     Davidson diagonalization with overlap
     ethr =  3.15E-04,  avg # of iterations =  2.0

     total cpu time spent up to now is     2151.5 secs

     total energy              =     -55.41200338 Ry
     Harris-Foulkes estimate   =     -55.41328373 Ry
     estimated scf accuracy    <       0.00361638 Ry

     iteration #  4     ecut=    60.00 Ry     beta= 0.70
     Davidson diagonalization with overlap
     ethr =  1.29E-05,  avg # of iterations =  6.0

     total cpu time spent up to now is     2626.0 secs

     total energy              =     -55.41314002 Ry
     Harris-Foulkes estimate   =     -55.41351243 Ry
     estimated scf accuracy    <       0.00098785 Ry

     iteration #  5     ecut=    60.00 Ry     beta= 0.70
     Davidson diagonalization with overlap
     ethr =  3.53E-06,  avg # of iterations =  3.1

     total cpu time spent up to now is     2930.6 secs

     total energy              =     -55.41312203 Ry
     Harris-Foulkes estimate   =     -55.41322515 Ry
     estimated scf accuracy    <       0.00018685 Ry

     iteration #  6     ecut=    60.00 Ry     beta= 0.70
     Davidson diagonalization with overlap
     ethr =  6.67E-07,  avg # of iterations =  3.3

     total cpu time spent up to now is     3368.0 secs

     total energy              =     -55.41319632 Ry
     Harris-Foulkes estimate   =     -55.41323141 Ry
     estimated scf accuracy    <       0.00008900 Ry

     iteration #  7     ecut=    60.00 Ry     beta= 0.70
     Davidson diagonalization with overlap
     ethr =  3.18E-07,  avg # of iterations =  2.1

     total cpu time spent up to now is     3700.4 secs

     total energy              =     -55.41320684 Ry
     Harris-Foulkes estimate   =     -55.41320805 Ry
     estimated scf accuracy    <       0.00000273 Ry

     iteration #  8     ecut=    60.00 Ry     beta= 0.70
     Davidson diagonalization with overlap
     ethr =  9.74E-09,  avg # of iterations =  4.2

     total cpu time spent up to now is     4179.1 secs

     End of self-consistent calculation

     Number of k-points >= 100: set verbosity='high' to print the bands.

     the Fermi energy is    -0.0148 ev

!    total energy              =     -55.41320826 Ry
     Harris-Foulkes estimate   =     -55.41320866 Ry
     estimated scf accuracy    <       0.00000051 Ry

     The total energy is the sum of the following terms:

     one-electron contribution =      -6.26191179 Ry
     hartree contribution      =       8.27357775 Ry
     xc contribution           =     -14.45629589 Ry
     ewald contribution        =     -42.96776648 Ry
     smearing contrib. (-TS)   =      -0.00081185 Ry

     convergence has been achieved in   8 iterations

 Energies determined by pw2casino tool
 -------------------------------------
 Kinetic energy      8.4285410910219252       au  =     16.857082182043850       Ry
 Local energy       -11.559496987890883       au  =    -23.118993975781766       Ry
 Non-Local energy    0.0000000000000000       au  =     0.0000000000000000       Ry
 Ewald energy       -21.483883238917564       au  =    -42.967766477835127       Ry
 xc contribution    -7.2281479444454888       au  =    -14.456295888890978       Ry
 hartree energy      4.1367888749686701       au  =     8.2735777499373402       Ry
 Smearing (-TS)     -4.0592342093180919E-004  au  =    -8.1184684186361839E-004  Ry
 Total energy       -27.706604128623628       au  =    -55.413208257247256       Ry
 -------------------------------------
 Total energy0      -27.706604128684273       au  =    -55.413208257368545       Ry
 External energy0    0.0000000000000000       au  =     0.0000000000000000       Ry
 -------------------------------------


     Writing output data file ./si.save/
