
     Program PWSCF v.6.5 starts on 30Mar2023 at 19:26:17 

     This program is part of the open-source Quantum ESPRESSO suite
     for quantum simulation of materials; please cite
         "P. Giannozzi et al., J. Phys.:Condens. Matter 21 395502 (2009);
         "P. Giannozzi et al., J. Phys.:Condens. Matter 29 465901 (2017);
          URL http://www.quantum-espresso.org", 
     in publications or presentations arising from this work. More details at
     http://www.quantum-espresso.org/quote

     Serial version
     Reading input from /home/valeria/Documents/DFTPY/Fitting_densities/Si7-CD/DATA2/Si24.in
Warning: card &IONS ignored
Warning: card / ignored
Warning: card &CELL ignored
Warning: card / ignored
Warning: card &FCP ignored
Warning: card / ignored
Warning: card &RISM ignored
Warning: card / ignored

     Current dimensions of program PWSCF are:
     Max number of different atomic species (ntypx) = 10
     Max number of k-points (npk) =  40000
     Max angular momentum in pseudopotentials (lmaxx) =  3

     WARNING: check_stop already initialized
     Message from routine setup:
     using ibrav=0 with symmetry is DISCOURAGED, use correct ibrav instead

     G-vector sticks info
     --------------------
     sticks:   dense  smooth     PW     G-vecs:    dense   smooth      PW
     Sum        3389    3389    941               148093   148093   21367



     bravais-lattice index     =            0
     lattice parameter (alat)  =      13.3042  a.u.
     unit-cell volume          =    2354.8629 (a.u.)^3
     number of atoms/cell      =            7
     number of atomic types    =            1
     number of electrons       =        28.00
     number of Kohn-Sham states=           18
     kinetic-energy cutoff     =      60.0000  Ry
     charge density cutoff     =     240.0000  Ry
     convergence threshold     =      1.0E-06
     mixing beta               =       0.7000
     number of iterations used =            8  plain     mixing
     Exchange-correlation= LDA
                           (   1   1   0   0   0   0   0)

     celldm(1)=  13.304193  celldm(2)=   0.000000  celldm(3)=   0.000000
     celldm(4)=   0.000000  celldm(5)=   0.000000  celldm(6)=   0.000000

     crystal axes: (cart. coord. in units of alat)
               a(1) = (   1.000000   0.000000   0.000000 )  
               a(2) = (   0.000000   1.000000   0.000000 )  
               a(3) = (   0.000000   0.000000   1.000000 )  

     reciprocal axes: (cart. coord. in units 2 pi/alat)
               b(1) = (  1.000000  0.000000  0.000000 )  
               b(2) = (  0.000000  1.000000  0.000000 )  
               b(3) = (  0.000000  0.000000  1.000000 )  


     PseudoPot. # 1 for Si read from file:
     /home/valeria/Desktop/programs/dftpy/examples/ofpp/EAC/upf/blps/si.lda.upf
     MD5 check sum: 946fc5a8d23174f015515f8139e499ed
     Pseudo is Norm-conserving, Zval =  4.0
     DFTpy
     Using radial grid of 1601 points,  1 beta functions with: 
                l(1) =   0

     atomic species   valence    mass     pseudopotential
        Si             4.00    28.08000     Si( 1.00)

     24 Sym. Ops. (no inversion) found (18 have fractional translation)



   Cartesian axes

     site n.     atom                  positions (alat units)
         1           Si  tau(   1) = (   0.0000000   0.0000000   0.0000000  )
         2           Si  tau(   2) = (   0.0000000   0.5000000   0.5000000  )
         3           Si  tau(   3) = (   0.2500000   0.7500000   0.7500000  )
         4           Si  tau(   4) = (   0.5000000   0.0000000   0.5000000  )
         5           Si  tau(   5) = (   0.7500000   0.2500000   0.7500000  )
         6           Si  tau(   6) = (   0.5000000   0.5000000   0.0000000  )
         7           Si  tau(   7) = (   0.7500000   0.7500000   0.2500000  )

     number of k points=   220  Gaussian smearing, width (Ry)=  0.0050

     Number of k-points >= 100: set verbosity='high' to print them.

     Dense  grid:   148093 G-vectors     FFT dimensions: (  72,  72,  72)

     Estimated max dynamical RAM per process >       1.22 GB

     Initial potential from superposition of free atoms

     starting charge   27.99552, renormalised to   28.00000
     Starting wfcs are random

     total cpu time spent up to now is      120.1 secs

     Self-consistent Calculation

     iteration #  1     ecut=    60.00 Ry     beta= 0.70
     Davidson diagonalization with overlap
     ethr =  1.00E-02,  avg # of iterations =  7.9

     Threshold (ethr) on eigenvalues was too large:
     Diagonalizing with lowered threshold

     Davidson diagonalization with overlap
     ethr =  3.72E-04,  avg # of iterations =  2.4

     total cpu time spent up to now is     1459.8 secs

     total energy              =     -55.31527511 Ry
     Harris-Foulkes estimate   =     -55.36517132 Ry
     estimated scf accuracy    <       0.10427319 Ry

     iteration #  2     ecut=    60.00 Ry     beta= 0.70
     Davidson diagonalization with overlap
     ethr =  3.72E-04,  avg # of iterations =  3.3

     total cpu time spent up to now is     1880.9 secs

     total energy              =     -55.31942207 Ry
     Harris-Foulkes estimate   =     -55.36911633 Ry
     estimated scf accuracy    <       0.10659977 Ry

     iteration #  3     ecut=    60.00 Ry     beta= 0.70
     Davidson diagonalization with overlap
     ethr =  3.72E-04,  avg # of iterations =  2.0

     total cpu time spent up to now is     2225.9 secs

     total energy              =     -55.34252534 Ry
     Harris-Foulkes estimate   =     -55.34378529 Ry
     estimated scf accuracy    <       0.00366067 Ry

     iteration #  4     ecut=    60.00 Ry     beta= 0.70
     Davidson diagonalization with overlap
     ethr =  1.31E-05,  avg # of iterations =  6.1

     total cpu time spent up to now is     2745.0 secs

     total energy              =     -55.34388712 Ry
     Harris-Foulkes estimate   =     -55.34435130 Ry
     estimated scf accuracy    <       0.00130230 Ry

     iteration #  5     ecut=    60.00 Ry     beta= 0.70
     Davidson diagonalization with overlap
     ethr =  4.65E-06,  avg # of iterations =  2.3

     total cpu time spent up to now is     3047.6 secs

     total energy              =     -55.34383828 Ry
     Harris-Foulkes estimate   =     -55.34398582 Ry
     estimated scf accuracy    <       0.00027572 Ry

     iteration #  6     ecut=    60.00 Ry     beta= 0.70
     Davidson diagonalization with overlap
     ethr =  9.85E-07,  avg # of iterations =  3.7

     total cpu time spent up to now is     3505.4 secs

     total energy              =     -55.34394411 Ry
     Harris-Foulkes estimate   =     -55.34399081 Ry
     estimated scf accuracy    <       0.00012266 Ry

     iteration #  7     ecut=    60.00 Ry     beta= 0.70
     Davidson diagonalization with overlap
     ethr =  4.38E-07,  avg # of iterations =  2.0

     total cpu time spent up to now is     3852.4 secs

     total energy              =     -55.34395800 Ry
     Harris-Foulkes estimate   =     -55.34395982 Ry
     estimated scf accuracy    <       0.00000426 Ry

     iteration #  8     ecut=    60.00 Ry     beta= 0.70
     Davidson diagonalization with overlap
     ethr =  1.52E-08,  avg # of iterations =  4.2

     total cpu time spent up to now is     4340.5 secs

     End of self-consistent calculation

     Number of k-points >= 100: set verbosity='high' to print the bands.

     the Fermi energy is    -0.2212 ev

!    total energy              =     -55.34396008 Ry
     Harris-Foulkes estimate   =     -55.34396071 Ry
     estimated scf accuracy    <       0.00000079 Ry

     The total energy is the sum of the following terms:

     one-electron contribution =      -7.20729310 Ry
     hartree contribution      =       8.51925755 Ry
     xc contribution           =     -14.37282557 Ry
     ewald contribution        =     -42.28211063 Ry
     smearing contrib. (-TS)   =      -0.00098832 Ry

     convergence has been achieved in   8 iterations

 Energies determined by pw2casino tool
 -------------------------------------
 Kinetic energy      8.3802980944625123       au  =     16.760596188925025       Ry
 Local energy       -11.983944643436455       au  =    -23.967889286872911       Ry
 Non-Local energy    0.0000000000000000       au  =     0.0000000000000000       Ry
 Ewald energy       -21.141055315032311       au  =    -42.282110630064622       Ry
 xc contribution    -7.1864127867435785       au  =    -14.372825573487157       Ry
 hartree energy      4.2596287727429170       au  =     8.5192575454858339       Ry
 Smearing (-TS)     -4.9416232054213204E-004  au  =    -9.8832464108426408E-004  Ry
 Total energy       -27.671980040257161       au  =    -55.343960080514321       Ry
 -------------------------------------
 Total energy0      -27.671980040327458       au  =    -55.343960080654917       Ry
 External energy0    0.0000000000000000       au  =     0.0000000000000000       Ry
 -------------------------------------


     Writing output data file ./si.save/
