
     Program PWSCF v.6.5 starts on 30Mar2023 at 23:23:10 

     This program is part of the open-source Quantum ESPRESSO suite
     for quantum simulation of materials; please cite
         "P. Giannozzi et al., J. Phys.:Condens. Matter 21 395502 (2009);
         "P. Giannozzi et al., J. Phys.:Condens. Matter 29 465901 (2017);
          URL http://www.quantum-espresso.org", 
     in publications or presentations arising from this work. More details at
     http://www.quantum-espresso.org/quote

     Serial version
     Reading input from /home/valeria/Documents/DFTPY/Fitting_densities/Si7-CD/DATA2/Si27.in
Warning: card &IONS ignored
Warning: card / ignored
Warning: card &CELL ignored
Warning: card / ignored
Warning: card &FCP ignored
Warning: card / ignored
Warning: card &RISM ignored
Warning: card / ignored

     Current dimensions of program PWSCF are:
     Max number of different atomic species (ntypx) = 10
     Max number of k-points (npk) =  40000
     Max angular momentum in pseudopotentials (lmaxx) =  3

     WARNING: check_stop already initialized
     Message from routine setup:
     using ibrav=0 with symmetry is DISCOURAGED, use correct ibrav instead

     G-vector sticks info
     --------------------
     sticks:   dense  smooth     PW     G-vecs:    dense   smooth      PW
     Sum        3713    3713   1009               170349   170349   24405



     bravais-lattice index     =            0
     lattice parameter (alat)  =      13.9411  a.u.
     unit-cell volume          =    2709.5101 (a.u.)^3
     number of atoms/cell      =            7
     number of atomic types    =            1
     number of electrons       =        28.00
     number of Kohn-Sham states=           18
     kinetic-energy cutoff     =      60.0000  Ry
     charge density cutoff     =     240.0000  Ry
     convergence threshold     =      1.0E-06
     mixing beta               =       0.7000
     number of iterations used =            8  plain     mixing
     Exchange-correlation= LDA
                           (   1   1   0   0   0   0   0)

     celldm(1)=  13.941096  celldm(2)=   0.000000  celldm(3)=   0.000000
     celldm(4)=   0.000000  celldm(5)=   0.000000  celldm(6)=   0.000000

     crystal axes: (cart. coord. in units of alat)
               a(1) = (   1.000000   0.000000   0.000000 )  
               a(2) = (   0.000000   1.000000   0.000000 )  
               a(3) = (   0.000000   0.000000   1.000000 )  

     reciprocal axes: (cart. coord. in units 2 pi/alat)
               b(1) = (  1.000000  0.000000  0.000000 )  
               b(2) = (  0.000000  1.000000  0.000000 )  
               b(3) = (  0.000000  0.000000  1.000000 )  


     PseudoPot. # 1 for Si read from file:
     /home/valeria/Desktop/programs/dftpy/examples/ofpp/EAC/upf/blps/si.lda.upf
     MD5 check sum: 946fc5a8d23174f015515f8139e499ed
     Pseudo is Norm-conserving, Zval =  4.0
     DFTpy
     Using radial grid of 1601 points,  1 beta functions with: 
                l(1) =   0

     atomic species   valence    mass     pseudopotential
        Si             4.00    28.08000     Si( 1.00)

     24 Sym. Ops. (no inversion) found (18 have fractional translation)



   Cartesian axes

     site n.     atom                  positions (alat units)
         1           Si  tau(   1) = (   0.0000000   0.0000000   0.0000000  )
         2           Si  tau(   2) = (   0.0000000   0.5000000   0.5000000  )
         3           Si  tau(   3) = (   0.2500000   0.7500000   0.7500000  )
         4           Si  tau(   4) = (   0.5000000   0.0000000   0.5000000  )
         5           Si  tau(   5) = (   0.7500000   0.2500000   0.7500000  )
         6           Si  tau(   6) = (   0.5000000   0.5000000   0.0000000  )
         7           Si  tau(   7) = (   0.7500000   0.7500000   0.2500000  )

     number of k points=   220  Gaussian smearing, width (Ry)=  0.0050

     Number of k-points >= 100: set verbosity='high' to print them.

     Dense  grid:   170349 G-vectors     FFT dimensions: (  72,  72,  72)

     Estimated max dynamical RAM per process >       1.40 GB

     Initial potential from superposition of free atoms

     starting charge   27.99552, renormalised to   28.00000
     Starting wfcs are random

     total cpu time spent up to now is      130.9 secs

     Self-consistent Calculation

     iteration #  1     ecut=    60.00 Ry     beta= 0.70
     Davidson diagonalization with overlap
     ethr =  1.00E-02,  avg # of iterations =  8.0

     Threshold (ethr) on eigenvalues was too large:
     Diagonalizing with lowered threshold

     Davidson diagonalization with overlap
     ethr =  4.12E-04,  avg # of iterations =  2.8

     total cpu time spent up to now is     1618.7 secs

     total energy              =     -55.11089315 Ry
     Harris-Foulkes estimate   =     -55.17012064 Ry
     estimated scf accuracy    <       0.11718333 Ry

     iteration #  2     ecut=    60.00 Ry     beta= 0.70
     Davidson diagonalization with overlap
     ethr =  4.19E-04,  avg # of iterations =  3.7

     total cpu time spent up to now is     2107.8 secs

     total energy              =     -55.10981079 Ry
     Harris-Foulkes estimate   =     -55.18200483 Ry
     estimated scf accuracy    <       0.16651466 Ry

     iteration #  3     ecut=    60.00 Ry     beta= 0.70
     Davidson diagonalization with overlap
     ethr =  4.19E-04,  avg # of iterations =  2.5

     total cpu time spent up to now is     2489.5 secs

     total energy              =     -55.14397016 Ry
     Harris-Foulkes estimate   =     -55.14552559 Ry
     estimated scf accuracy    <       0.00481857 Ry

     iteration #  4     ecut=    60.00 Ry     beta= 0.70
     Davidson diagonalization with overlap
     ethr =  1.72E-05,  avg # of iterations =  6.0

     total cpu time spent up to now is     3058.9 secs

     total energy              =     -55.14590948 Ry
     Harris-Foulkes estimate   =     -55.14643433 Ry
     estimated scf accuracy    <       0.00164239 Ry

     iteration #  5     ecut=    60.00 Ry     beta= 0.70
     Davidson diagonalization with overlap
     ethr =  5.87E-06,  avg # of iterations =  2.5

     total cpu time spent up to now is     3388.6 secs

     total energy              =     -55.14582021 Ry
     Harris-Foulkes estimate   =     -55.14602058 Ry
     estimated scf accuracy    <       0.00042522 Ry

     iteration #  6     ecut=    60.00 Ry     beta= 0.70
     Davidson diagonalization with overlap
     ethr =  1.52E-06,  avg # of iterations =  4.3

     total cpu time spent up to now is     3902.5 secs

     total energy              =     -55.14596756 Ry
     Harris-Foulkes estimate   =     -55.14601000 Ry
     estimated scf accuracy    <       0.00012157 Ry

     iteration #  7     ecut=    60.00 Ry     beta= 0.70
     Davidson diagonalization with overlap
     ethr =  4.34E-07,  avg # of iterations =  2.0

     total cpu time spent up to now is     4275.8 secs

     total energy              =     -55.14597971 Ry
     Harris-Foulkes estimate   =     -55.14598234 Ry
     estimated scf accuracy    <       0.00000630 Ry

     iteration #  8     ecut=    60.00 Ry     beta= 0.70
     Davidson diagonalization with overlap
     ethr =  2.25E-08,  avg # of iterations =  4.2

     total cpu time spent up to now is     4789.7 secs

     total energy              =     -55.14598328 Ry
     Harris-Foulkes estimate   =     -55.14598369 Ry
     estimated scf accuracy    <       0.00000210 Ry

     iteration #  9     ecut=    60.00 Ry     beta= 0.70
     Davidson diagonalization with overlap
     ethr =  7.51E-09,  avg # of iterations =  1.0

     total cpu time spent up to now is     5100.0 secs

     End of self-consistent calculation

     Number of k-points >= 100: set verbosity='high' to print the bands.

     the Fermi energy is    -0.7728 ev

!    total energy              =     -55.14598260 Ry
     Harris-Foulkes estimate   =     -55.14598335 Ry
     estimated scf accuracy    <       0.00000093 Ry

     The total energy is the sum of the following terms:

     one-electron contribution =      -9.89500941 Ry
     hartree contribution      =       9.25522955 Ry
     xc contribution           =     -14.15426970 Ry
     ewald contribution        =     -40.35044060 Ry
     smearing contrib. (-TS)   =      -0.00149244 Ry

     convergence has been achieved in   9 iterations

 Energies determined by pw2casino tool
 -------------------------------------
 Kinetic energy      8.2688601533689123       au  =     16.537720306737825       Ry
 Local energy       -13.216364856907937       au  =    -26.432729713815874       Ry
 Non-Local energy    0.0000000000000000       au  =     0.0000000000000000       Ry
 Ewald energy       -20.175220300570011       au  =    -40.350440601140022       Ry
 xc contribution    -7.0771348487938415       au  =    -14.154269697587683       Ry
 hartree energy      4.6276147728305856       au  =     9.2552295456611713       Ry
 Smearing (-TS)     -7.4622124819435454E-004  au  =    -1.4924424963887091E-003  Ry
 Total energy       -27.572991301231063       au  =    -55.145982602462126       Ry
 -------------------------------------
 Total energy0      -27.572991301320489       au  =    -55.145982602640977       Ry
 External energy0    0.0000000000000000       au  =     0.0000000000000000       Ry
 -------------------------------------


     Writing output data file ./si.save/
