
     Program PWSCF v.6.5 starts on 20Mar2023 at 15:41:30 

     This program is part of the open-source Quantum ESPRESSO suite
     for quantum simulation of materials; please cite
         "P. Giannozzi et al., J. Phys.:Condens. Matter 21 395502 (2009);
         "P. Giannozzi et al., J. Phys.:Condens. Matter 29 465901 (2017);
          URL http://www.quantum-espresso.org", 
     in publications or presentations arising from this work. More details at
     http://www.quantum-espresso.org/quote

     Serial version
     Reading input from /home/valeria/Documents/DFTPY/Fitting_densities/Si7-CD/DATA2/Si6.in
Warning: card &IONS ignored
Warning: card / ignored
Warning: card &CELL ignored
Warning: card / ignored
Warning: card &FCP ignored
Warning: card / ignored
Warning: card &RISM ignored
Warning: card / ignored

     Current dimensions of program PWSCF are:
     Max number of different atomic species (ntypx) = 10
     Max number of k-points (npk) =  40000
     Max angular momentum in pseudopotentials (lmaxx) =  3

     WARNING: check_stop already initialized
     Message from routine setup:
     using ibrav=0 with symmetry is DISCOURAGED, use correct ibrav instead

     G-vector sticks info
     --------------------
     sticks:   dense  smooth     PW     G-vecs:    dense   smooth      PW
     Sum        1725    1725    489                53643    53643    8217



     bravais-lattice index     =            0
     lattice parameter (alat)  =       9.4828  a.u.
     unit-cell volume          =     852.7201 (a.u.)^3
     number of atoms/cell      =            7
     number of atomic types    =            1
     number of electrons       =        28.00
     number of Kohn-Sham states=           18
     kinetic-energy cutoff     =      60.0000  Ry
     charge density cutoff     =     240.0000  Ry
     convergence threshold     =      1.0E-06
     mixing beta               =       0.7000
     number of iterations used =            8  plain     mixing
     Exchange-correlation= LDA
                           (   1   1   0   0   0   0   0)

     celldm(1)=   9.482776  celldm(2)=   0.000000  celldm(3)=   0.000000
     celldm(4)=   0.000000  celldm(5)=   0.000000  celldm(6)=   0.000000

     crystal axes: (cart. coord. in units of alat)
               a(1) = (   1.000000   0.000000   0.000000 )  
               a(2) = (   0.000000   1.000000   0.000000 )  
               a(3) = (   0.000000   0.000000   1.000000 )  

     reciprocal axes: (cart. coord. in units 2 pi/alat)
               b(1) = (  1.000000  0.000000  0.000000 )  
               b(2) = (  0.000000  1.000000  0.000000 )  
               b(3) = (  0.000000  0.000000  1.000000 )  


     PseudoPot. # 1 for Si read from file:
     /home/valeria/Desktop/programs/dftpy/examples/ofpp/EAC/upf/blps/si.lda.upf
     MD5 check sum: 946fc5a8d23174f015515f8139e499ed
     Pseudo is Norm-conserving, Zval =  4.0
     DFTpy
     Using radial grid of 1601 points,  1 beta functions with: 
                l(1) =   0

     atomic species   valence    mass     pseudopotential
        Si             4.00    28.08000     Si( 1.00)

     24 Sym. Ops. (no inversion) found (18 have fractional translation)



   Cartesian axes

     site n.     atom                  positions (alat units)
         1           Si  tau(   1) = (   0.0000000   0.0000000   0.0000000  )
         2           Si  tau(   2) = (   0.0000000   0.5000000   0.5000000  )
         3           Si  tau(   3) = (   0.2500000   0.7500000   0.7500000  )
         4           Si  tau(   4) = (   0.5000000   0.0000000   0.5000000  )
         5           Si  tau(   5) = (   0.7500000   0.2500000   0.7500000  )
         6           Si  tau(   6) = (   0.5000000   0.5000000   0.0000000  )
         7           Si  tau(   7) = (   0.7500000   0.7500000   0.2500000  )

     number of k points=   220  Gaussian smearing, width (Ry)=  0.0050

     Number of k-points >= 100: set verbosity='high' to print them.

     Dense  grid:    53643 G-vectors     FFT dimensions: (  48,  48,  48)

     Estimated max dynamical RAM per process >     451.78 MB

     Initial potential from superposition of free atoms

     starting charge   27.99552, renormalised to   28.00000
     Starting wfcs are random

     total cpu time spent up to now is       34.6 secs

     Self-consistent Calculation

     iteration #  1     ecut=    60.00 Ry     beta= 0.70
     Davidson diagonalization with overlap
     ethr =  1.00E-02,  avg # of iterations =  7.6

     Threshold (ethr) on eigenvalues was too large:
     Diagonalizing with lowered threshold

     Davidson diagonalization with overlap
     ethr =  8.01E-04,  avg # of iterations =  1.0

     total cpu time spent up to now is      331.9 secs

     total energy              =     -56.09008531 Ry
     Harris-Foulkes estimate   =     -56.19630178 Ry
     estimated scf accuracy    <       0.22602296 Ry

     iteration #  2     ecut=    60.00 Ry     beta= 0.70
     Davidson diagonalization with overlap
     ethr =  8.07E-04,  avg # of iterations =  2.0

     total cpu time spent up to now is      401.3 secs

     total energy              =     -56.11740245 Ry
     Harris-Foulkes estimate   =     -56.15132402 Ry
     estimated scf accuracy    <       0.05718525 Ry

     iteration #  3     ecut=    60.00 Ry     beta= 0.70
     Davidson diagonalization with overlap
     ethr =  2.04E-04,  avg # of iterations =  2.0

     total cpu time spent up to now is      471.2 secs

     total energy              =     -56.13282841 Ry
     Harris-Foulkes estimate   =     -56.13572294 Ry
     estimated scf accuracy    <       0.00633174 Ry

     iteration #  4     ecut=    60.00 Ry     beta= 0.70
     Davidson diagonalization with overlap
     ethr =  2.26E-05,  avg # of iterations =  3.9

     total cpu time spent up to now is      549.5 secs

     total energy              =     -56.13398546 Ry
     Harris-Foulkes estimate   =     -56.13399615 Ry
     estimated scf accuracy    <       0.00004919 Ry

     iteration #  5     ecut=    60.00 Ry     beta= 0.70
     Davidson diagonalization with overlap
     ethr =  1.76E-07,  avg # of iterations =  5.1

     total cpu time spent up to now is      648.4 secs

     total energy              =     -56.13400455 Ry
     Harris-Foulkes estimate   =     -56.13400611 Ry
     estimated scf accuracy    <       0.00000353 Ry

     iteration #  6     ecut=    60.00 Ry     beta= 0.70
     Davidson diagonalization with overlap
     ethr =  1.26E-08,  avg # of iterations =  2.0

     total cpu time spent up to now is      709.6 secs

     End of self-consistent calculation

     Number of k-points >= 100: set verbosity='high' to print the bands.

     the Fermi energy is     7.4561 ev

!    total energy              =     -56.13400491 Ry
     Harris-Foulkes estimate   =     -56.13400504 Ry
     estimated scf accuracy    <       0.00000017 Ry

     The total energy is the sum of the following terms:

     one-electron contribution =      15.98532567 Ry
     hartree contribution      =       4.37531967 Ry
     xc contribution           =     -17.17307829 Ry
     ewald contribution        =     -59.32117013 Ry
     smearing contrib. (-TS)   =      -0.00040184 Ry

     convergence has been achieved in   6 iterations

 Energies determined by pw2casino tool
 -------------------------------------
 Kinetic energy      11.022580994337769       au  =     22.045161988675538       Ry
 Local energy       -3.0299181594833762       au  =    -6.0598363189667523       Ry
 Non-Local energy    0.0000000000000000       au  =     0.0000000000000000       Ry
 Ewald energy       -29.660585065906986       au  =    -59.321170131813972       Ry
 xc contribution    -8.5865391426642468       au  =    -17.173078285328494       Ry
 hartree energy      2.1876598362163087       au  =     4.3753196724326173       Ry
 Smearing (-TS)     -2.0091899868236938E-004  au  =    -4.0183799736473875E-004  Ry
 Total energy       -28.067002456491299       au  =    -56.134004912982597       Ry
 -------------------------------------
 Total energy0      -28.067002456499214       au  =    -56.134004912998428       Ry
 External energy0    0.0000000000000000       au  =     0.0000000000000000       Ry
 -------------------------------------


     Writing output data file ./si.save/
