#     DFTpy    
  CRYSTAL 
    
  PRIMVEC    
  5.467448275862071    0.0    0.0    
  0.0    5.467448275862071    0.0    
  0.0    0.0    5.467448275862071    
  PRIMCOORD    
  7    1    
  Si    0.0    0.0    0.0    
  Si    0.0    2.733724137931031    2.733724137931031    
  Si    1.3668620689655204    4.100586206896552    4.100586206896552    
  Si    2.733724137931031    0.0    2.733724137931031    
  Si    4.100586206896552    1.3668620689655204    4.100586206896552    
  Si    2.733724137931031    2.733724137931031    0.0    
  Si    4.100586206896552    4.100586206896552    1.3668620689655204    
  BEGIN_BLOCK_DATAGRID_3D    
  3d_datagrid_density    
  BEGIN_DATAGRID_3D#0    
  55    55    55    
  0.0    0.0    0.0    
  5.467448296255758    0.0    0.0    
  0.0    5.467448296255758    0.0    
  0.0    0.0    5.467448296255758    
  0.0503187192540751    0.058657299879877896    0.08470061845635214    0.1335774119224584    0.20530182146286657    
  0.2868446672614815    0.3541458182409742    0.38648424049972024    0.3794232936688922    0.34371342205069116    
  0.2946898180483542    0.24399265662226527    0.1978033673193333    0.15848379252134084    0.12634114971917695    
  0.10069754548576766    0.08053516502014675    0.06486104827938101    0.052813799417365574    0.0436448007315082    
  0.036716109886840445    0.03152612833686837    0.02770810831163014    0.024995225095284204    0.02318907564313791    
  0.022147793932395986    0.021780923316146842    0.022041942146592497    0.022921813838590054    0.024446010562517374    
  0.02667455414485454    0.029706041408922412    0.03368353570031443    0.03879901241599664    0.045304440576641056    
  0.05353914990638616    0.06395429118651827    0.07710080279150668    0.09359615467073006    0.11412761765239672    
  0.1394736261314108    0.17040249375018854    0.20733722810870633    0.24978081244103445    0.2953605052351022    
  0.33824253034920365    0.3677234677465477    0.37001848577406793    0.3359368691042452    0.27038528582329013    
  0.192944751107937    0.12575531696147801    0.08049640579229671    0.05690389650656441    0.0503187192540751    
  0.05865729987987783    0.06697100639428893    0.09340268276590569    0.14204058657190632    0.21163381585130125    
  0.2886671996172603    0.3501401960700704    0.37729790091341203    0.3670977425649195    0.3304128109913036    
  0.281899740711283    0.232453993487917    0.18777121981153844    0.1499610697253632    0.1192113704566465    
  0.09479720081857464    0.07569365210882698    0.06091725838808051    0.049620795552985916    0.04107305771240631    
  0.034656545546032466    0.02988980248217249    0.02642265532265156    0.024000830054830995    0.022435632870774595    
  0.02159297409843538    0.02138860016666408    0.021780923316146866    0.02276490202128373    0.02436917843612499    
  0.026656093974218097    0.029726163198690113    0.033725189295943314    0.03884968569246814    0.045357234406379454    
  0.053591899285971425    0.06400785159552438    0.0771584243234221    0.09366395200494561    0.1142157115155063    
  0.13960066701933502    0.17060689505147741    0.20769367716591958    0.25042428932371025    0.29654229158302636    
  0.3404441505567197    0.37175692685249023    0.37687056957584986    0.3461598267177502    0.28336924334427444    
  0.20691064463610992    0.13875810414596437    0.09153681419393755    0.06616709212406371    0.05865729987987783    
  0.08470061845635214    0.09340268276590567    0.12138466722377765    0.17026516628024463    0.23584437970869296    
  0.3035552366637747    0.35283010182154645    0.369203593811365    0.3524997969402455    0.3136750031488105    
  0.2658512738145609    0.21836746285412964    0.1759757854929887    0.14034865372101601    0.1115044763901871    
  0.08868156113807019    0.07088256089906332    0.05716924907614668    0.046734592993087035    0.03888232257016568    
  0.03302858987880075    0.028721958221405164    0.025634869776875804    0.02352889705984506    0.022227680152747908    
  0.021607667263455563    0.02159297409843538    0.02214779393239608    0.02327090280547125    0.024993715222132697    
  0.02738065999945639    0.030533950847333298    0.0346016962179552    0.03978393284858813    0.04634123575890299    
  0.05461697863620491    0.06506022340328382    0.07821671844960543    0.09469600975052549    0.11517105347058189    
  0.1404057160545337    0.1711788339515345    0.20798211040363765    0.2504937810067251    0.2967588148856108    
  0.3418490731205152    0.37648879626436105    0.38800330504037583    0.3662517820466476    0.3122767947720647    
  0.24104820939980437    0.1731446124606113    0.12284546624999505    0.0940039925545431    0.08470061845635214    
  0.13357741192245837    0.14204058657190627    0.17026516628024457    0.2164974826602845    0.2732123214664841    
  0.3256490001675139    0.35734346815543017    0.3593988415540258    0.33468265672691627    0.293612963192447    
  0.24703601459287697    0.2022467537590146    0.16282803028670742    0.1299365378740147    0.10341025490014662    
  0.08247119247987615    0.06618024270772037    0.05367087317487097    0.04419460321796809    0.03710355244620544    
  0.031858665166831106    0.028047044531080385    0.025369151949780417    0.023605765593352493    0.022595552407343768    
  0.022227680152748047    0.022435632870774783    0.02318907564313803    0.024489837843080033    0.0263718477034856    
  0.028901912575888054    0.032183884474756105    0.03636681565505459    0.04165119678436556    0.04829553121537952    
  0.056635036383219574    0.06710424633610008    0.0802314072145    0.0966043274306968    0.1168606611990082    
  0.14171362739729942    0.1719004000128085    0.20792562076497956    0.24960058880587763    0.2953705268571081    
  0.34125420383918065    0.3796283463536207    0.3995351003840751    0.3908625499580273    0.3515454155968034    
  0.2915676582767009    0.22833594163335674    0.17704349934828648    0.14506063883198897    0.13357741192245837    
  0.20530182146286655    0.2116338158513013    0.2358443797086931    0.27321232146648416    0.3142802565376155    
  0.34605835129945967    0.3573858626812834    0.34466402273714725    0.31270289798669254    0.2704456628321947    
  0.2260502877542637    0.18469345162585948    0.1488122072432799    0.1190754170312247    0.09516837376026052    
  0.07632754594808754    0.06169826419385304    0.050502730471679406    0.042062358544363986    0.03578769587612339    
  0.0311935910214312    0.027912377927226277    0.025676685196394378    0.0242892568404197    0.023605765593352517    
  0.023528897059845198    0.02400083005483111    0.024995225095284342    0.026515901548065792    0.0285993391909369    
  0.03131532426750318    0.034769024240197725    0.03910791202039099    0.044528044619806896    0.0512790455147692    
  0.0596792745804143    0.0701383287239319    0.08315651232827208    0.09929071320493012    0.11913157759046478    
  0.1433194372445859    0.1725152154679829    0.20720121071411815    0.24730100669860944    0.29166125793344033    
  0.33729768798017984    0.378451065317346    0.4064507023607687    0.4121854792449779    0.39135114275626276    
  0.3487717223402952    0.2971068276210065    0.2504301327118765    0.2184379850281724    0.20530182146286655    
  0.2868446672614815    0.2886671996172603    0.3035552366637747    0.3256490001675139    0.3460583512994596    
  0.3553689735105555    0.3476226418912465    0.32290319562192893    0.2863445865699215    0.24473587952237716    
  0.20362950719758585    0.16637206356419765    0.13445336028841057    0.1081505554872914    0.0870500116413698    
  0.07043972149090431    0.05757065463761415    0.04776318501903097    0.040415105289949675    0.03500278966434942    
  0.031101451115100705    0.028392376057419847    0.02664215383176728    0.025676685196394402    0.02536915194978044    
  0.025634869776875898    0.026422655322651725    0.027708108311630376    0.029495940851184826    0.03182501787767352    
  0.03476794031376331    0.03842971377003347    0.04295254167783729    0.04852236922466295    0.055373110733804506    
  0.06379824046737462    0.07417242098721107    0.08695705318000693    0.10266897037939277    0.12184334431407517    
  0.14503086399873386    0.17278302854429584    0.20551552696440986    0.24321826301500618    0.28507292019040265    
  0.3289619319286574    0.3708386458683809    0.40443600975195204    0.42247259354896155    0.4199402877422875    
  0.39773619587058867    0.3633824984502058    0.3277318278262189    0.3003466728970423    0.2868446672614815    
  0.3541458182409742    0.3501401960700704    0.3528301018215465    0.35734346815543017    0.35738586268128336    
  0.34762264189124653    0.3259502832590375    0.2941392027287326    0.2564489100434141    0.21746368331719387    
  0.18064226584333454    0.14797838011062428    0.12027613591951053    0.09754062995433092    0.07932300771580965    
  0.06499842639434004    0.05393703579596146    0.04556023861039748    0.03934522324579666    0.034838857896438334    
  0.0316795619702657    0.029597546792578814    0.028392376057419906    0.02791237792722637    0.0280470445310805    
  0.028721958221405396    0.029889802482172722    0.03152612833686867    0.03363541059432139    0.03625767205398561    
  0.039466158433993474    0.04336230339603735    0.048078383469123645    0.05378473125947032    0.06069393454677482    
  0.06906860260523105    0.07924043826871038    0.09162154180419571    0.1066792611435806    0.12488714320879112    
  0.1466968568112307    0.17252595884217853    0.2026817642594567    0.23716746767136668    0.2754100977829258    
  0.315947425519822    0.3560587027417499    0.3915243899655618    0.4171289921630972    0.42844434344586985    
  0.4242888896137997    0.4080365275926569    0.3864514852728617    0.36679196093718225    0.3541458182409742    
  0.3864842404997203    0.3772979009134122    0.36920359381136514    0.35939884155402585    0.3446640227371472    
  0.32290319562192893    0.2941392027287326    0.2604014905419886    0.2247042096625302    0.1898995726154886    
  0.15802498991871436    0.13019333971394634    0.10676288562863168    0.0875812329117613    0.07222370456244574    
  0.06017700349478667    0.05093237738822133    0.044008650838444595    0.03896242032050561    0.035412587940375356    
  0.03305971487951321    0.03167956197026575    0.031101451115100844    0.03119359102143133    0.031858665166831245    
  0.03302858987880092    0.03465654554603272    0.03671610988684077    0.03920994260494372    0.042176213928763105    
  0.045684073542562445    0.0498261192627915    0.054719866914814924    0.0605156834779088    0.06740096888611098    
  0.07560384673461185    0.08540793260642145    0.09716783532424232    0.11129297337083437    0.12819235303561524    
  0.14822028669857953    0.17165417967339988    0.19866710884870883    0.22922909738061037    0.2629284671786787    
  0.2987570891727893    0.3348942358900966    0.36857513325309993    0.3963144005744654    0.41479268037423794    
  0.42225183046075637    0.4195514573311456    0.40998383009429307    0.3978205837840456    0.3864842404997203    
  0.37942329366889216    0.3670977425649195    0.3524997969402455    0.33468265672691627    0.31270289798669254    
  0.2863445865699215    0.2564489100434141    0.22470420966253016    0.19309293650899767    0.16335023763092696    
  0.13666247686539476    0.11361792540619861    0.09431638348168084    0.07854524676205234    0.06594743060809191    
  0.05612691802067546    0.048685251687661274    0.04323006835344477    0.039395125518873204    0.03686986607676515    
  0.03541258794037548    0.034838857896438494    0.03500278966434971    0.035787695876123696    0.03710355244620571    
  0.03888232257016599    0.041073057712406824    0.043644800731508684    0.04659568911946242    0.049956892264904774    
  0.05378636343568061    0.058161540401399085    0.06318138374316323    0.06897435653543181    0.07570142968435091    
  0.08355551088156848    0.09277094984132951    0.10364094183276193    0.1165115139205711    0.13172816602503745    
  0.14956185244676554    0.17016815899360682    0.1935873022956625    0.21972559497061836    0.24826138199658196    
  0.27848708740698414    0.3091546631797678    0.3384136899755521    0.3639592667687377    0.3834953782352472    
  0.3954464387653799    0.39956541094179343    0.39699991343193636    0.38968877638917765    0.37942329366889216    
  0.34371342205069116    0.33041281099130365    0.3136750031488105    0.293612963192447    0.2704456628321947    
  0.24473587952237716    0.21746368331719393    0.1898995726154886    0.16335023763092701    0.13890072449188448    
  0.11725357399419124    0.09870463266508382    0.08323307080843108    0.07063867000791513    0.06065189206620718    
  0.052981443597861555    0.04732068384915252    0.043356330100015904    0.04079595377881094    0.03939512551887333    
  0.038962420320505904    0.03934522324579693    0.040415105289950105    0.04206235854436439    0.044194603217968545    
  0.04673459299308756    0.04962079555298653    0.05281379941736624    0.05630284206532468    0.06010487626006127    
  0.0642578069145979    0.06881720488564551    0.07386128013622552    0.07949779136590138    0.08586377691919884    
  0.0931206096949053    0.10145837885962328    0.1111125035337551    0.12236620243277027    0.13550624616777607    
  0.1507420485824036    0.16814614088674731    0.18765742043192005    0.20911199852698723    0.2322212067649456    
  0.25646519549315017    0.28096408843301957    0.3044344476245117    0.3253089903534301    0.3420232656012601    
  0.3533831700092867    0.35885285959996305    0.3586060369803092    0.35330209019654657    0.34371342205069116    
  0.2946898180483542    0.281899740711283    0.26585127381456103    0.24703601459287688    0.22605028775426367    
  0.20362950719758585    0.1806422658433345    0.15802498991871441    0.13666247686539476    0.11725357399419124    
  0.10022255736301125    0.08571901049386363    0.0736954828266559    0.06400512005055393    0.05646301268776796    
  0.050860941859486045    0.04696695153366303    0.04453978071222357    0.04335633010001605    0.043230068353445034    
  0.04400865083844502    0.04556023861039795    0.047763185019031554    0.05050273047167999    0.05367087317487164    
  0.057169249076147434    0.06091725838808139    0.06486104827938188    0.06897452682722154    0.07325181652364214    
  0.0777015250013342    0.08235114224923816    0.08725730083825137    0.09251068291923426    0.09823047583226442    
  0.10455540660018675    0.11164440623158065    0.11968995213378611    0.12892379489369982    0.13958399677435288    
  0.15184096328665833    0.1657289797853566    0.1811369100725154    0.19785172374072318    0.2155837403796215    
  0.23391673973712673    0.25221365100957466    0.26957482723691345    0.2849212493793073    0.29718596166934796    
  0.3055235536886057    0.30944185369166294    0.30881336851563645    0.30379079283032123    0.2946898180483542    
  0.24399265662226527    0.232453993487917    0.2183674628541296    0.20224675375901452    0.18469345162585946    
  0.16637206356419768    0.14797838011062425    0.13019333971394625    0.11361792540619861    0.09870463266508374    
  0.08571901049386359    0.07475447498266458    0.06578760855552446    0.058734573935812266    0.053479451908751925    
  0.04987878095094223    0.047765835157243294    0.04696695153366312    0.04732068384915267    0.0486852516876617    
  0.05093237738822183    0.05393703579596197    0.05757065463761486    0.06169826419385382    0.06618024270772119    
  0.07088256089906429    0.075693652108828    0.0805351650201478    0.08535627660721179    0.09011959636042403    
  0.09479782052477045    0.09938747606760683    0.10392529811758311    0.10849053025505692    0.1131932394978675    
  0.11816251109388885    0.12354603728686582    0.12951928127360346    0.1362876562457746    0.14405994479457995    
  0.15298841584746514    0.16310530997746311    0.17430044686921414    0.1863516803036105    0.19896605310910007    
  0.2117787657289212    0.22430960061699143    0.23593522519179158    0.24593396359154596    0.25359901329958984    
  0.2583598266401536    0.25985130534583095    0.25791708577822947    0.25257663227647364    0.24399265662226527    
  0.19780336731933332    0.1877712198115384    0.17597578549298878    0.16282803028670748    0.1488122072432799    
  0.1344533602884106    0.12027613591951057    0.1067628856286317    0.09431638348168087    0.08323307080843109    
  0.07369548282665588    0.06578760855552448    0.05952376438769509    0.054874040886381786    0.051777318821796564    
  0.050147023316707194    0.04987878095094245    0.05086094185948624    0.052981443597862    0.05612691802067606    
  0.06017700349478743    0.06499842639434088    0.0704397214909053    0.0763275459480886    0.08247119247987734    
  0.0886815611380715    0.09479720081857596    0.100697545485769    0.10629303258998299    0.11150742244844727    
  0.11627743394932691    0.12057376127600078    0.124421402118466    0.1278988662295521    0.13112089109053743    
  0.1342248193994011    0.13737102954032646    0.14074891497400308    0.14457168613827978    0.1490485535266683    
  0.15433627983950607    0.16048858597208274    0.16743019159916925    0.17496896889506747    0.18283085248510128    
  0.19068656684824195    0.19815599177301982    0.20480717173650764    0.21017745049128858    0.2138238315921998    
  0.21538240012595178    0.21460979434200855    0.2113953984111802    0.2057523928090821    0.19780336731933332    
  0.15848379252134084    0.14996106972536313    0.14034865372101607    0.1299365378740147    0.11907541703122476    
  0.10815055548729142    0.09754062995433088    0.08758123291176133    0.07854524676205235    0.07063867000791516    
  0.06400512005055395    0.058734573935812315    0.05487404088638181    0.05243777303678315    0.05141530612982376    
  0.051777318821796724    0.053479451908752314    0.056463012687768384    0.06065189206620784    0.06594743060809273    
  0.0722237045624467    0.0793230077158107    0.08705001164137105    0.09516837376026192    0.1034102549001481    
  0.11150447639018872    0.11921137045664812    0.12634114971917854    0.13274641439353607    0.13830663678606056    
  0.14293027132986053    0.14657723239984924    0.14927864349340794    0.15113353354113213    0.15228802456770152    
  0.1529183781768538    0.1532284284164933    0.1534513316140909    0.15383878404136087    0.15463088041759027    
  0.15601358829964676    0.15807847050383655    0.1607994430292939    0.16403496368578915    0.16755307362730487    
  0.17106711571230213    0.17426823509013972    0.17684732684102308    0.1785084348711634    0.17898172199518603    
  0.17804328038721814    0.1755406372499082    0.17141254271960024    0.1656906452533646    0.15848379252134084    
  0.12634114971917693    0.1192113704566465    0.11150447639018712    0.10341025490014662    0.09516837376026055    
  0.08705001164136984    0.07932300771580958    0.07222370456244578    0.06594743060809191    0.060651892066207205    
  0.05646301268776798    0.05347945190875195    0.0517773188217966    0.051415306129823736    0.05243777303678325    
  0.05487404088638209    0.05873457393581281    0.06400512005055457    0.07063867000791597    0.07854524676205339    
  0.08758123291176259    0.09754062995433234    0.10815055548729297    0.11907541703122644    0.12993653787401657    
  0.140348653721018    0.14996106972536521    0.15848379252134281    0.16569064525336666    0.1714125427196021    
  0.17554063724990993    0.1780432803872198    0.17898172199518755    0.17850843487116472    0.17684732684102425    
  0.17426823509014064    0.17106711571230285    0.16755307362730532    0.16403496368578943    0.16079944302929403    
  0.15807847050383653    0.15601358829964665    0.15463088041758996    0.15383878404136048    0.15345133161409028    
  0.15322842841649265    0.15291837817685286    0.15228802456770033    0.1511335335411309    0.14927864349340647    
  0.14657723239984766    0.14293027132985897    0.138306636786059    0.13274641439353443    0.12634114971917693    
  0.10069754548576768    0.09479720081857472    0.08868156113807028    0.08247119247987619    0.07632754594808756    
  0.07043972149090437    0.06499842639434002    0.06017700349478676    0.056126918020675494    0.052981443597861576    
  0.05086094185948601    0.049878780950942295    0.05014702331670722    0.05177731882179675    0.05487404088638202    
  0.05952376438769558    0.06578760855552523    0.07369548282665679    0.08323307080843227    0.09431638348168225    
  0.10676288562863333    0.12027613591951235    0.13445336028841262    0.14881220724328212    0.1628280302867098    
  0.17597578549299117    0.18777121981154088    0.19780336731933573    0.20575239280908447    0.21139539841118238    
  0.21460979434201052    0.21538240012595355    0.2138238315922015    0.21017745049129002    0.2048071717365087    
  0.19815599177302068    0.19068656684824245    0.18283085248510164    0.1749689688950676    0.16743019159916925    
  0.16048858597208257    0.15433627983950576    0.14904855352666782    0.14457168613827917    0.14074891497400244    
  0.1373710295403256    0.13422481939940012    0.13112089109053637    0.12789886622955096    0.12442140211846477    
  0.12057376127599952    0.11627743394932562    0.11150742244844597    0.10629303258998166    0.10069754548576768    
  0.08053516502014675    0.075693652108827    0.07088256089906324    0.06618024270772031    0.06169826419385302    
  0.05757065463761419    0.05393703579596141    0.050932377388221345    0.0486852516876613    0.047320683849152494    
  0.046966951533663016    0.047765835157243294    0.0498787809509424    0.05347945190875223    0.0587345739358127    
  0.06578760855552516    0.07475447498266549    0.08571901049386475    0.09870463266508522    0.11361792540620033    
  0.13019333971394828    0.14797838011062645    0.1663720635642001    0.18469345162586207    0.2022467537590173    
  0.21836746285413236    0.2324539934879198    0.24399265662226796    0.25257663227647625    0.25791708577823186    
  0.25985130534583323    0.25835982664015555    0.25359901329959167    0.2459339635915472    0.2359352251917926    
  0.22430960061699215    0.21177876572892163    0.1989660531091002    0.18635168030361043    0.17430044686921395    
  0.16310530997746275    0.15298841584746467    0.14405994479457937    0.13628765624577396    0.1295192812736027    
  0.12354603728686502    0.11816251109388787    0.11319323949786654    0.1084905302550558    0.10392529811758197    
  0.09938747606760576    0.09479782052476932    0.09011959636042303    0.08535627660721071    0.08053516502014675    
  0.06486104827938101    0.06091725838808059    0.057169249076146685    0.053670873174870994    0.050502730471679455    
  0.04776318501903104    0.045560238610397506    0.04400865083844465    0.04323006835344481    0.043356330100015904    
  0.04453978071222361    0.04696695153366317    0.050860941859486294    0.056463012687768384    0.06400512005055453    
  0.07369548282665682    0.08571901049386482    0.10022255736301275    0.11725357399419312    0.13666247686539693    
  0.1580249899187168    0.18064226584333726    0.2036295071975888    0.2260502877542667    0.24703601459287997    
  0.265851273814564    0.281899740711286    0.2946898180483571    0.30379079283032395    0.3088133685156389    
  0.30944185369166516    0.30552355368860773    0.2971859616693496    0.2849212493793085    0.2695748272369142    
  0.2522136510095751    0.2339167397371269    0.21558374037962136    0.19785172374072288    0.18113691007251503    
  0.16572897978535606    0.15184096328665775    0.13958399677435215    0.128923794893699    0.1196899521337853    
  0.11164440623157976    0.10455540660018577    0.09823047583226356    0.09251068291923327    0.08725730083825038    
  0.08235114224923724    0.07770152500133334    0.07325181652364132    0.06897452682722069    0.06486104827938101    
  0.05281379941736554    0.049620795552985944    0.04673459299308706    0.04419460321796807    0.04206235854436398    
  0.04041510528994973    0.039345223245796646    0.03896242032050566    0.03939512551887325    0.04079595377881092    
  0.04335633010001601    0.047320683849152716    0.052981443597862006    0.06065189206620779    0.07063867000791596    
  0.08323307080843227    0.09870463266508527    0.11725357399419307    0.13890072449188665    0.16335023763092957    
  0.18989957261549145    0.217463683317197    0.24473587952238032    0.27044566283219784    0.29361296319245006    
  0.31367500314881347    0.33041281099130637    0.3437134220506938    0.353302090196549    0.3586060369803114    
  0.3588528595999651    0.3533831700092885    0.34202326560126156    0.3253089903534311    0.30443444762451227    
  0.2809640884330198    0.25646519549315006    0.2322212067649452    0.20911199852698673    0.18765742043191944    
  0.1681461408867466    0.1507420485824028    0.13550624616777518    0.12236620243276941    0.11111250353375421    
  0.10145837885962246    0.09312060969490438    0.08586377691919791    0.07949779136590052    0.0738612801362247    
  0.06881720488564477    0.06425780691459719    0.060104876260060634    0.0563028420653241    0.05281379941736554    
  0.0436448007315082    0.04107305771240629    0.03888232257016561    0.037103552446205355    0.035787695876123404    
  0.035002789664349485    0.03483885789643834    0.03541258794037539    0.03686986607676519    0.0393951255188733    
  0.04323006835344499    0.04868525168766166    0.056126918020676056    0.06594743060809273    0.07854524676205335    
  0.09431638348168227    0.11361792540620032    0.13666247686539687    0.1633502376309296    0.19309293650900064    
  0.22470420966253335    0.25644891004341736    0.2863445865699247    0.3127028979866954    0.3346826567269187    
  0.3524997969402476    0.3670977425649212    0.3794232936688937    0.3896887763891792    0.3969999134319378    
  0.39956541094179493    0.39544643876538116    0.3834953782352484    0.36395926676873824    0.3384136899755523    
  0.3091546631797677    0.2784870874069837    0.24826138199658132    0.21972559497061753    0.19358730229566157    
  0.17016815899360585    0.14956185244676462    0.13172816602503654    0.11651151392057014    0.10364094183276108    
  0.09277094984132868    0.0835555108815677    0.07570142968435012    0.06897435653543098    0.06318138374316254    
  0.058161540401398405    0.05378636343568003    0.04995689226490426    0.046595689119461936    0.0436448007315082    
  0.036716109886840355    0.0346565455460324    0.03302858987880068    0.03185866516683099    0.031193591021431155    
  0.03110145111510069    0.03167956197026565    0.033059714879513216    0.03541258794037545    0.03896242032050582    
  0.04400865083844498    0.0509323773882218    0.060177003494787405    0.07222370456244664    0.08758123291176251    
  0.10676288562863334    0.13019333971394834    0.15802498991871683    0.18989957261549142    0.22470420966253343    
  0.26040149054199174    0.2941392027287357    0.32290319562193154    0.34466402273714913    0.3593988415540269    
  0.3692035938113655    0.3772979009134121    0.38648424049972013    0.3978205837840456    0.4099838300942934    
  0.4195514573311462    0.42225183046075704    0.4147926803742385    0.39631440057446554    0.3685751332530997    
  0.33489423589009615    0.29875708917278854    0.2629284671786777    0.2292290973806093    0.19866710884870772    
  0.17165417967339877    0.14822028669857854    0.12819235303561427    0.11129297337083341    0.0971678353242415    
  0.0854079326064206    0.07560384673461104    0.06740096888611023    0.06051568347790809    0.054719866914814265    
  0.049826119262790985    0.04568407354256197    0.04217621392876275    0.03920994260494339    0.036716109886840355    
  0.0315261283368683    0.02988980248217242    0.028721958221405188    0.02804704453108036    0.0279123779272263    
  0.028392376057419837    0.02959754679257879    0.03167956197026575    0.03483885789643854    0.03934522324579697    
  0.04556023861039792    0.05393703579596202    0.06499842639434085    0.0793230077158107    0.0975406299543323    
  0.12027613591951242    0.14797838011062656    0.1806422658433372    0.217463683317197    0.25644891004341736    
  0.2941392027287357    0.32595028325904    0.347622641891248    0.3573858626812836    0.35734346815542917    
  0.3528301018215447    0.3501401960700683    0.3541458182409721    0.3667919609371807    0.3864514852728607    
  0.4080365275926565    0.4242888896137996    0.42844434344586985    0.41712899216309685    0.3915243899655612    
  0.3560587027417489    0.3159474255198208    0.2754100977829244    0.23716746767136526    0.20268176425945533    
  0.17252595884217722    0.14669685681122957    0.12488714320878996    0.10667926114357965    0.09162154180419482    
  0.07924043826870966    0.0690686026052304    0.060693934546774166    0.05378473125946971    0.04807838346912318    
  0.04336230339603692    0.03946615843399313    0.03625767205398531    0.033635410594321104    0.0315261283368683    
  0.027708108311630095    0.026422655322651513    0.02563486977687576    0.025369151949780348    0.025676685196394402    
  0.0266421538317673    0.02839237605741987    0.031101451115100903    0.03500278966434967    0.04041510528995012    
  0.04776318501903157    0.05757065463761485    0.0704397214909053    0.08705001164137102    0.10815055548729297    
  0.13445336028841268    0.16637206356420017    0.20362950719758877    0.24473587952238032    0.28634458656992473    
  0.3229031956219316    0.3476226418912479    0.3553689735105553    0.3460583512994578    0.3256490001675108    
  0.3035552366637708    0.2886671996172565    0.2868446672614781    0.30034667289703965    0.3277318278262171    