#     DFTpy    
  CRYSTAL 
    
  PRIMVEC    
  5.355103448275861    0.0    0.0    
  0.0    5.355103448275861    0.0    
  0.0    0.0    5.355103448275861    
  PRIMCOORD    
  7    1    
  Si    0.0    0.0    0.0    
  Si    0.0    2.6775517241379303    2.6775517241379303    
  Si    1.3387758620689705    4.016327586206901    4.016327586206901    
  Si    2.6775517241379303    0.0    2.6775517241379303    
  Si    4.016327586206901    1.3387758620689705    4.016327586206901    
  Si    2.6775517241379303    2.6775517241379303    0.0    
  Si    4.016327586206901    4.016327586206901    1.3387758620689705    
  BEGIN_BLOCK_DATAGRID_3D    
  3d_datagrid_density    
  BEGIN_DATAGRID_3D#0    
  51    51    51    
  0.0    0.0    0.0    
  5.3551034682504985    0.0    0.0    
  0.0    5.3551034682504985    0.0    
  0.0    0.0    5.3551034682504985    
  0.049611300472066425    0.0588282523923884    0.08819392288832412    0.1436880844724484    0.22366327359992447    
  0.3095580092567259    0.3721017445111274    0.3916166098259341    0.3701616628633677    0.32415677441281343    
  0.27034936006081933    0.21900488307125301    0.17452480791297809    0.13798714374452847    0.10890188507166236    
  0.0861959862003947    0.06874793530965904    0.05555254902773943    0.04570677169427549    0.03842863740961235    
  0.033115690119117636    0.029348797251558378    0.026837373273655617    0.025372142592498474    0.02481167249533253    
  0.02508022497943574    0.026160999936047237    0.02809080309967577    0.030961806522505686    0.03492385799849432    
  0.040183768494153345    0.04702011635907556    0.055830740655896535    0.06717498852801476    0.08174460037045582    
  0.10028790548505093    0.12359734924278457    0.15254059934524133    0.18790753461581913    0.22990253793635573    
  0.277238034838448    0.3255455525516901    0.3651264392348071    0.3806056384743062    0.3574583105180019    
  0.2948645720976243    0.21195704891552553    0.13608116762221656    0.08409615987107337    0.05713435935275247    
  0.049611300472066425    0.05882825239238831    0.06798895587077013    0.09772929764208765    0.15259318784888756    
  0.22933114757856246    0.3091466735823648    0.3646715545235777    0.37881267742640123    0.35486117297973974    
  0.3087909145599454    0.2562794159345864    0.20675792709887741    0.16418474251642703    0.1294351306880892    
  0.10193391003691903    0.08058416206072747    0.06426999102971143    0.05200495711453807    0.04291407486916513    
  0.036248529440215206    0.03143571266199709    0.028078244529883712    0.025901101253273436    0.024707732403900617    
  0.02436727231479    0.02481167249533248    0.02602920117084359    0.02806040729451065    0.031001215448213524    
  0.03500630545393841    0.04028892773352904    0.0471348101160291    0.05594771964494985    0.06729116301526518    
  0.08186083356000336    0.10041002065130313    0.12373828734997384    0.15272838683215192    0.18820250243501974    
  0.23042063468561372    0.27819271292906317    0.3273570038330734    0.36859888926220424    0.38693767856910194    
  0.3676728740607858    0.3087461883848589    0.2275978503030783    0.15094642453841858    0.09667724183097581    
  0.06751611296766771    0.05882825239238831    0.08819392288832412    0.09772929764208772    0.12909358656593825    
  0.1834676023617259    0.2539612473737786    0.321351430800408    0.3624697286561228    0.36563304398778385    
  0.3364864089491307    0.2898875709267132    0.23927241055641313    0.1924443290840222    0.15257735458841465    
  0.12024353739523119    0.09477728049215248    0.07508952036500897    0.060109922396748526    0.04890416242120801    
  0.0406508221793181    0.034654287128887754    0.03038573005778354    0.027476754285247606    0.025671151927687402    
  0.024787550000250038    0.024707732403900735    0.02537214259249852    0.02677395932640323    0.02895749126958564    
  0.0320228857724817    0.03613020737683527    0.041499368915545065    0.04842140816288976    0.05729883286905871    
  0.06868562251987964    0.08326413927303633    0.10177316627807094    0.12499351109142917    0.1537898718163374    
  0.18899069705885915    0.23092212517438943    0.2785982741089969    0.328411218312666    0.37221226302428795    
  0.39651641612712757    0.38696491010736356    0.3389672328069378    0.265389227020171    0.19015173610725214    
  0.13257688572266269    0.09917452838296399    0.08819392288832412    0.1436880844724484    0.15259318784888765    
  0.1834676023617259    0.2331265567953825    0.2910112121512814    0.33905717370497956    0.36038747870479076    
  0.3497221680606626    0.31464161148870085    0.26791291320518895    0.21997178295907588    0.17661944092091625    
  0.1401109646940811    0.11068521588240925    0.08760249990818142    0.06981611346814337    0.056334004792181716    
  0.046297770189309286    0.03895742979748247    0.03368527311039408    0.030007038683249367    0.027589633671244573    
  0.026199063500015555    0.025671151927687333    0.025901101253273506    0.026837373273655665    0.028477384213929122    
  0.03086923513634498    0.034117374500748844    0.03838602136571373    0.04389865720170853    0.050946079765861095    
  0.059919722938544806    0.07134937206236992    0.08588774770104309    0.10424352046298527    0.1271585626223959    
  0.15544808404821556    0.18991202383224126    0.23092935399971595    0.2777627810452566    0.32753827928505563    
  0.37374782071460266    0.4052871968876891    0.4091269597543088    0.3783043329185621    0.31965723886456443    
  0.25189769998082695    0.1942671207677859    0.1574001209514175    0.1436880844724484    0.2236632735999245    
  0.2293311475785625    0.2539612473737785    0.29101121215128145    0.3285899072525869    0.3523058662592841    
  0.3523350697477934    0.32860747330750406    0.2890344003799196    0.2434401318109631    0.19910919328297133    
  0.1599169970515419    0.12726274911625882    0.10109038538571705    0.08062673675735466    0.06490625064242757    
  0.05304101884367468    0.04426332428950837    0.03790518157626259    0.03341561296580033    0.03038144657642115    
  0.028509172642272786    0.027589633671244597    0.027476754285247557    0.02807824452988383    0.029348797251558402    
  0.0312888631392531    0.03394999584286218    0.037439859353838104    0.04192304994749901    0.04761991296604522    
  0.05481235928820976    0.06387008981463081    0.07528545532309902    0.0896677706045478    0.10768362267386528    
  0.13002004386953922    0.15741101773341723    0.19058108827397777    0.22992098085068693    0.2749216205519615    
  0.32343912950998516    0.37067798245835337    0.40831446791619336    0.4257018038982589    0.41497584994406034    
  0.37756549808882006    0.3255353385807043    0.2752379915993912    0.23929623409444012    0.2236632735999245    
  0.3095580092567259    0.30914667358236486    0.32135143080040807    0.3390571737049796    0.3523058662592841    
  0.3519564436528027    0.3340407493362379    0.30120461572407997    0.2600678598490063    0.21731383454230407    
  0.1775214064762767    0.14302489238675153    0.11454772210740075    0.09182212953865904    0.07409967320622815    
  0.060534657281837004    0.05036129983032852    0.04291005535904511    0.037599790199412494    0.0339592842928566    
  0.0316375932066158    0.03038144657642115    0.03000703868324941    0.030385730057783517    0.031435712661997156    
  0.033115690119117636    0.035427506586823004    0.03842432541338531    0.04221324422771294    0.046952294248342526    
  0.05284922806508813    0.06016729199922501    0.06924546253726847    0.0805291998863783    0.09457407647037626    
  0.11199495766967885    0.1334110404128947    0.15944496755971957    0.19069189980742632    0.22749288974033222    
  0.269505261467053    0.3151917934836502    0.36121213839250976    0.4018192642686751    0.4292401361875633    
  0.436430187393766    0.4215652368552088    0.39058138278710675    0.35478640379182885    0.3254146054056628    
  0.3095580092567259    0.37210174451112743    0.36467155452357775    0.3624697286561228    0.36038747870479076    
  0.3523350697477934    0.3340407493362379    0.3050516722513611    0.2684940794403233    0.2290044046601214    
  0.1906643394334927    0.15611571242123967    0.12662701088469647    0.10245590440372852    0.08322421770237626    
  0.06826795526467536    0.05688850841396113    0.048448826835755916    0.042379167882922064    0.03818639333355482    
  0.03547734581801237    0.03395928429285655    0.033415612965800305    0.03368527311039403    0.03465428712888766    
  0.03624852944021523    0.03842863740961233    0.04119555381212546    0.0445995302551921    0.048739571912050694    
  0.053757426316308476    0.05983793237527782    0.06721689250301695    0.07619652825159325    0.08717009152348801    
  0.10063187785445364    0.11713645842365983    0.13722661788273782    0.1613950977094412    0.19006476567105376    
  0.22346408990064745    0.2613409387707825    0.30260778735993993    0.3449873749022563    0.38469000335392595    
  0.4165169871526994    0.43517180001693173    0.43783240514288396    0.42632280960482627    0.4067834879965424    
  0.3867995640413344    0.37210174451112743    0.3916166098259341    0.37881267742640123    0.3656330439877838    
  0.34972216806066253    0.32860747330750406    0.3012046157240799    0.2684940794403232    0.23300239252125557    
  0.19763632115733173    0.16474412064049865    0.13577192835352034    0.11132820504357424    0.09139550023238173    
  0.07558157845653048    0.06334851683847194    0.054149892056667245    0.04747137533544001    0.04284090573104106    
  0.03985258606777814    0.03818639333355487    0.037599790199412474    0.03790518157626264    0.03895742979748249    
  0.04065082217931807    0.04291407486916516    0.04570677169427551    0.04902498924561587    0.0529081726827116    
  0.05743630288469122    0.06272425931179507    0.06892577418948397    0.0762439205354059    0.08494192309602146    
  0.09535930436631436    0.1079238244944268    0.12312182849185789    0.1414175182079429    0.16317767640760364    
  0.18864427720156948    0.21789431621406297    0.2506953113637362    0.28626837289902785    0.3230494544912494    
  0.358529704334506    0.3893381497216952    0.41188414700427006    0.4236523550932752    0.4245059163780556    
  0.4169299019192177    0.40482516825172166    0.3916166098259341    0.37016166286336766    0.3548611729797398    
  0.3364864089491307    0.3146416114887009    0.2890344003799196    0.2600678598490064    0.22900440466012145    
  0.1976363211573318    0.16774377898492301    0.1406799795500747    0.11721614397416832    0.09759112472021249    
  0.08166780567330938    0.06911205432279903    0.05952331383266142    0.05249052875943618    0.04760836361186437    
  0.044498956543635726    0.042840905731041    0.04237916788292206    0.04291005535904508    0.0442633242895084    
  0.046297770189309265    0.0489041624212079    0.05200495711453807    0.05555254902773945    0.059531042636305063    
  0.06395778805776113    0.06888082515138895    0.0743790568271611    0.08057163061121353    0.08762909728702421    
  0.09577828296516724    0.10530853559681555    0.11658105274030874    0.13000987752901874    0.14598547102820053    
  0.1647759278095224    0.18647815722627656    0.21102311559505463    0.23814692796821324    0.2672609758912771    
  0.29726906085296945    0.32645740026690384    0.35258721215102395    0.37328356591982154    0.3866854624909635    
  0.3920772679018179    0.39008406986625604    0.3822377453371935    0.37016166286336766    0.3241567744128134    
  0.30879091455994545    0.28988757092671313    0.2679129132051889    0.2434401318109631    0.21731383454230407    
  0.19066433943349273    0.16474412064049865    0.1406799795500747    0.11927296147447647    0.10092718641275576    
  0.0857086429184273    0.07347262421343473    0.06397886608211059    0.056948719947783895    0.05208016330861149    
  0.04906300028686858    0.04760836361186442    0.04747137533544006    0.048448826835755965    0.050361299830328554    
  0.053041018843674785    0.05633400479218174    0.06010992239674848    0.06426999102971151    0.06874793530965909    
  0.07350449960160786    0.07852128187480133    0.08380190396146053    0.08938369499701476    0.09535316620842742    
  0.10185370528569115    0.10908267673151473    0.11728920877429368    0.12677878181538924    0.13790121704723302    
  0.1509875592303834    0.16624798878534267    0.18370119709368293    0.2031828409428905    0.22438161531497816    
  0.24680431768196412    0.2696554126979838    0.29174170842640307    0.31153828205784867    0.327453113195374    
  0.33819150654288205    0.34304615987080983    0.3419741886836571    0.33544406731129417    0.3241567744128134    
  0.27034936006081933    0.2562794159345864    0.23927241055641313    0.21997178295907585    0.1991091932829714    
  0.17752140647627665    0.15611571242123967    0.1357719283535204    0.11721614397416831    0.10092718641275573    
  0.08712254433027189    0.07582118125722677    0.06693154168303368    0.06030891213353008    0.0557710603424597    
  0.05310349366211972    0.05208016330861143    0.05249052875943616    0.05414989205666731    0.05688850841396114    
  0.060534657281836976    0.06490625064242758    0.06981611346814334    0.0750895203650089    0.08058416206072748    
  0.08619598620039472    0.09184584055023812    0.09746565766158857    0.10300650065945677    0.10846495258740205    
  0.11390295112014885    0.11944656307217343    0.12527378881346807    0.13160889248639726    0.1387251862979722    
  0.146935124294469    0.15653912865595984    0.16773385496331097    0.18053093742079826    0.19474500367501152    
  0.21004199115166122    0.2259682622276706    0.24190900167502627    0.25703008444093034    0.27030978492801927    
  0.28069694624150077    0.28731956894175037    0.2896321043697628    0.2874510940619232    0.2809051815132489    
  0.27034936006081933    0.219004883071253    0.20675792709887741    0.19244432908402223    0.17661944092091625    
  0.1599169970515419    0.14302489238675148    0.12662701088469647    0.11132820504357421    0.09759112472021247    
  0.08570864291842725    0.07582118125722674    0.06796455001820621    0.062115108127468996    0.05820850628620925    
  0.05614004370121764    0.055771060342459676    0.05694871994778384    0.05952331383266141    0.0633485168384719    
  0.06826795526467537    0.07409967320622805    0.08062673675735461    0.08760249990818135    0.09477728049215241    
  0.10193391003691905    0.10890188507166235    0.1155398169873386    0.12171770349373791    0.12733370803052138    
  0.13235388761833441    0.13683232115240562    0.14089628797274092    0.14472323323989147    0.14853573411955592    
  0.15260777854777224    0.15725518354501136    0.16278925263090294    0.16943620027390982    0.17725618120093115    
  0.18611028664710058    0.19569153652702811    0.20557926688694367    0.21526534121458293    0.22415392353047014    
  0.2315830767585768    0.23689596887932315    0.23953626551786225    0.2391248032191071    0.23549828162780603    
  0.2287111486506805    0.219004883071253    0.17452480791297814    0.16418474251642706    0.15257735458841465    
  0.14011096469408119    0.12726274911625884    0.11454772210740075    0.10245590440372859    0.09139550023238181    
  0.08166780567330947    0.07347262421343477    0.06693154168303375    0.062115108127469065    0.05905981821740658    
  0.05776912618021388    0.05820850628620926    0.0603089121335301    0.06397886608211056    0.06911205432279902    
  0.07558157845653043    0.08322421770237624    0.09182212953865895    0.10109038538571707    0.11068521588240915    
  0.12024353739523105    0.1294351306880892    0.13798714374452845    0.14566918991797528    0.15227887312676264    
  0.157667482029033    0.16178760557482827    0.16471053308200112    0.1665990807506403    0.1676729133790232    
  0.1681988097223243    0.16849589964006412    0.16892546130310462    0.1698483399595426    0.17155427881115157    
  0.17418577580216069    0.17769210319593387    0.18183879300264164    0.18626191877170564    0.19053127068844633    
  0.19419794648168354    0.19682623988450978    0.19801746804186202    0.19743282378217886    0.19482552126693464    
  0.19008280751150564    0.18325237140569842    0.17452480791297814    0.13798714374452842    0.12943513068808923    
  0.12024353739523111    0.11068521588240922    0.10109038538571706    0.09182212953865898    0.08322421770237626    
  0.07558157845653048    0.06911205432279906    0.06397886608211059    0.06030891213353012    0.05820850628620932    
  0.05776912618021386    0.059059818217406586    0.06211510812746903    0.06693154168303371    0.07347262421343476    
  0.08166780567330942    0.09139550023238172    0.10245590440372852    0.11454772210740072    0.12726274911625884    
  0.1401109646940811    0.15257735458841457    0.16418474251642706    0.17452480791297814    0.1832523714056984    
  0.19008280751150555    0.19482552126693456    0.19743282378217883    0.19801746804186185    0.19682623988450992    
  0.19419794648168354    0.19053127068844627    0.1862619187717057    0.1818387930026417    0.17769210319593381    
  0.1741857758021606    0.17155427881115157    0.1698483399595426    0.16892546130310468    0.1684958996400641    
  0.16819880972232432    0.1676729133790233    0.16659908075064025    0.16471053308200118    0.1617876055748283    
  0.15766748202903305    0.15227887312676275    0.14566918991797537    0.13798714374452842    0.10890188507166236    
  0.10193391003691905    0.09477728049215246    0.08760249990818135    0.08062673675735466    0.07409967320622807    
  0.06826795526467538    0.0633485168384719    0.059523313832661386    0.05694871994778386    0.0557710603424597    
  0.05614004370121766    0.058208506286209306    0.062115108127469044    0.06796455001820617    0.07582118125722667    
  0.0857086429184272    0.0975911247202124    0.11132820504357414    0.12662701088469644    0.14302489238675145    
  0.1599169970515419    0.17661944092091617    0.1924443290840222    0.20675792709887733    0.21900488307125293    
  0.2287111486506804    0.23549828162780603    0.23912480321910706    0.23953626551786225    0.23689596887932307    
  0.23158307675857687    0.22415392353047003    0.21526534121458288    0.2055792668869437    0.19569153652702814    
  0.18611028664710058    0.17725618120093115    0.16943620027390982    0.16278925263090296    0.15725518354501133    
  0.15260777854777222    0.14853573411955598    0.14472323323989156    0.14089628797274092    0.1368323211524058    
  0.1323538876183345    0.1273337080305215    0.12171770349373795    0.11553981698733863    0.10890188507166236    
  0.08619598620039465    0.08058416206072747    0.07508952036500896    0.0698161134681434    0.06490625064242754    
  0.060534657281837025    0.056888508413961175    0.05414989205666731    0.05249052875943621    0.05208016330861148    
  0.05310349366211974    0.05577106034245971    0.06030891213353012    0.06693154168303371    0.0758211812572267    
  0.08712254433027183    0.10092718641275569    0.11721614397416828    0.1357719283535203    0.15611571242123962    
  0.17752140647627665    0.1991091932829713    0.2199717829590758    0.23927241055641307    0.25627941593458636    
  0.2703493600608192    0.28090518151324884    0.2874510940619232    0.2896321043697627    0.2873195689417503    
  0.28069694624150066    0.27030978492801927    0.2570300844409303    0.24190900167502624    0.22596826222767064    
  0.21004199115166125    0.19474500367501155    0.18053093742079832    0.16773385496331103    0.15653912865595987    
  0.14693512429446898    0.13872518629797218    0.13160889248639732    0.12527378881346815    0.11944656307217343    
  0.11390295112014893    0.10846495258740207    0.10300650065945688    0.0974656576615886    0.0918458405502382    
  0.08619598620039465    0.06874793530965913    0.06426999102971152    0.06010992239674851    0.056334004792181765    
  0.05304101884367482    0.050361299830328575    0.04844882683575596    0.04747137533544    0.0476083636118644    
  0.04906300028686855    0.052080163308611545    0.056948719947783895    0.06397886608211056    0.07347262421343473    
  0.08570864291842725    0.1009271864127557    0.11927296147447637    0.1406799795500746    0.1647441206404986    
  0.19066433943349262    0.21731383454230402    0.2434401318109631    0.26791291320518884    0.2898875709267131    
  0.30879091455994534    0.3241567744128134    0.3354440673112941    0.3419741886836571    0.3430461598708097    
  0.33819150654288194    0.32745311319537396    0.31153828205784867    0.29174170842640296    0.2696554126979838    
  0.24680431768196417    0.2243816153149782    0.2031828409428905    0.18370119709368293    0.1662479887853427    
  0.1509875592303834    0.13790121704723302    0.12677878181538924    0.11728920877429369    0.10908267673151471    
  0.10185370528569111    0.09535316620842756    0.0893836949970148    0.08380190396146063    0.07852128187480133    
  0.07350449960160788    0.06874793530965913    0.05555254902773943    0.05200495711453807    0.04890416242120796    
  0.046297770189309265    0.04426332428950842    0.04291005535904513    0.04237916788292211    0.04284090573104102    
  0.04449895654363576    0.047608363611864435    0.05249052875943621    0.05952331383266142    0.069112054322799    
  0.08166780567330938    0.09759112472021245    0.11721614397416825    0.14067997955007458    0.16774377898492296    
  0.19763632115733165    0.22900440466012134    0.2600678598490063    0.2890344003799196    0.3146416114887008    
  0.3364864089491307    0.3548611729797398    0.37016166286336766    0.3822377453371934    0.3900840698662559    
  0.3920772679018178    0.38668546249096347    0.37328356591982154    0.35258721215102407    0.3264574002669038    
  0.29726906085296945    0.2672609758912772    0.23814692796821324    0.21102311559505463    0.1864781572262766    
  0.16477592780952244    0.14598547102820053    0.1300098775290188    0.11658105274030874    0.10530853559681565    
  0.09577828296516734    0.08762909728702413    0.08057163061121363    0.07437905682716107    0.068880825151389    
  0.06395778805776113    0.05953104263630516    0.05555254902773943    0.04570677169427549    0.04291407486916513    
  0.04065082217931814    0.03895742979748251    0.03790518157626271    0.037599790199412494    0.03818639333355487    
  0.03985258606777807    0.04284090573104103    0.04747137533544007    0.05414989205666728    0.06334851683847194    
  0.07558157845653046    0.0913955002323817    0.1113282050435742    0.13577192835352025    0.16474412064049862    
  0.19763632115733168    0.23300239252125543    0.26849407944032316    0.3012046157240799    0.32860747330750406    
  0.3497221680606625    0.3656330439877838    0.3788126774264012    0.39161660982593405    0.40482516825172166    
  0.41692990191921775    0.4245059163780556    0.42365235509327515    0.41188414700427006    0.3893381497216952    
  0.358529704334506    0.3230494544912494    0.28626837289902785    0.2506953113637362    0.21789431621406297    
  0.18864427720156954    0.16317767640760372    0.1414175182079429    0.12312182849185795    0.10792382449442678    
  0.09535930436631436    0.08494192309602151    0.07624392053540589    0.06892577418948406    0.06272425931179507    
  0.057436302884691245    0.05290817268271165    0.04902498924561587    0.04570677169427549    0.03842863740961228    
  0.03624852944021518    0.03465428712888771    0.03368527311039403    0.033415612965800374    0.033959284292856516    
  0.03547734581801235    0.0381863933335548    0.04237916788292202    0.048448826835755965    0.05688850841396117    
  0.06826795526467536    0.08322421770237624    0.1024559044037285    0.1266270108846964    0.15611571242123962    
  0.19066433943349262    0.22900440466012126    0.26849407944032316    0.30505167225136104    0.3340407493362378    
  0.3523350697477934    0.3603874787047908    0.3624697286561229    0.36467155452357775    0.3721017445111275    
  0.3867995640413344    0.40678348799654246    0.42632280960482627    0.43783240514288396    0.43517180001693173    
  0.4165169871526995    0.38469000335392584    0.3449873749022563    0.30260778735993993    0.2613409387707825    
  0.22346408990064745    0.1900647656710538    0.16139509770944124    0.13722661788273782    0.11713645842365983    
  0.10063187785445357    0.08717009152348804    0.07619652825159329    0.06721689250301693    0.05983793237527789    
  0.053757426316308504    0.048739571912050764    0.044599530255192074    0.04119555381212548    0.03842863740961228    
  0.033115690119117636    0.03143571266199709    0.03038573005778354    0.030007038683249387    0.03038144657642115    
  0.03163759320661578    0.03395928429285658    0.037599790199412515    0.04291005535904508    0.050361299830328554    
  0.06053465728183697    0.07409967320622815    0.09182212953865897    0.11454772210740068    0.14302489238675148    
  0.17752140647627665    0.21731383454230402    0.2600678598490063    0.3012046157240799    0.3340407493362378    
  0.3519564436528027    0.35230586625928423    0.3390571737049796    0.32135143080040823    0.3091466735823649    
  0.309558009256726    0.3254146054056628    0.3547864037918289    0.3905813827871068    0.42156523685520875    
  0.436430187393766    0.4292401361875634    0.40181926426867504    0.36121213839250976    0.31519179348365023    
  0.26950526146705306    0.22749288974033224    0.19069189980742635    0.1594449675597196    0.1334110404128947    
  0.1119949576696788    0.09457407647037623    0.08052919988637834    0.06924546253726854    0.06016729199922504    
  0.052849228065088245    0.04695229424834245    0.042213244227712964    0.03842432541338524    0.03542750658682303    
  0.033115690119117636    0.029348797251558333    0.028078244529883712    0.027476754285247557    0.027589633671244524    
  0.028509172642272786    0.0303814465764211    0.03341561296580033    0.03790518157626265    0.04426332428950838    
  0.05304101884367473    0.06490625064242757    0.08062673675735466    0.10109038538571698    0.1272627491162588    
  0.15991699705154183    0.1991091932829713    0.243440131810963    0.2890344003799195    0.32860747330750395    
  0.3523350697477934    0.3523058662592841    0.32858990725258713    0.29101121215128156    0.2539612473737787    
  0.2293311475785626    0.22366327359992455    0.23929623409444017    0.2752379915993913    0.3255353385807043    
  0.37756549808882    0.41497584994406034    0.4257018038982592    0.40831446791619336    0.3706779824583534    
  0.32343912950998527    0.27492162055196157    0.22992098085068693    0.1905810882739778    0.15741101773341726    
  0.1300200438695392    0.10768362267386518    0.0896677706045478    0.07528545532309895    0.06387008981463083    
  0.05481235928820976    0.047619912966045244    0.04192304994749892    0.037439859353838104    0.03394999584286218    
  0.03128886313925312    0.029348797251558333    0.026837373273655617    0.02590110125327346    0.025671151927687357    
  0.026199063500015603    0.027589633671244573    0.03000703868324941    0.03368527311039406    0.03895742979748244    
  0.04629777018930925    0.05633400479218177    0.0698161134681434    0.08760249990818145    0.11068521588240922    
  0.14011096469408107    0.17661944092091617    0.21997178295907585    0.26791291320518884    0.31464161148870085    
  0.34972216806066253    0.36038747870479076    0.3390571737049796    0.29101121215128156    0.2331265567953826    
  0.18346760236172605    0.15259318784888778    0.14368808447244846    0.15740012095141762    0.1942671207677859    
  0.25189769998082695    0.31965723886456443    0.378304332918562    0.40912695975430885    0.4052871968876891    
  0.3737478207146027    0.3275382792850556    0.27776278104525665    0.23092935399971598    0.1899120238322413    
  0.1554480840482156    0.12715856262239592    0.10424352046298523    0.08588774770104313    0.07134937206236996    
  0.059919722938544875    0.050946079765861116    0.04389865720170865    0.03838602136571368    0.03411737450074889    
  0.030869235136345024    0.028477384213929074    0.026837373273655617    0.025372142592498495    0.02470773240390071    
  0.024787550000250083    0.025671151927687357    0.027476754285247606    0.030385730057783566    0.034654287128887754    
  0.04065082217931807    0.04890416242120794    0.060109922396748554    0.07508952036500896    0.09477728049215248    
  0.12024353739523111    0.1525773545884146    0.19244432908402215    0.23927241055641313    0.28988757092671313    
  0.3364864089491306    0.3656330439877838    0.3624697286561229    0.32135143080040823    0.2539612473737787    
  0.18346760236172607    0.12909358656593833    0.09772929764208776    0.08819392288832416    0.09917452838296395    
  0.1325768857226627    0.19015173610725214    0.2653892270201709    0.3389672328069378    0.38696491010736367    
  0.3965164161271275    0.372212263024288    0.328411218312666    0.278598274108997    0.23092212517438948    
  0.1889906970588592    0.15378987181633746    0.12499351109142914    0.10177316627807091    0.08326413927303623    
  0.06868562251987964    0.05729883286905873    0.04842140816288981    0.041499368915545204    0.03613020737683527    
  0.03202288577248177    0.02895749126958564    0.026773959326403255    0.025372142592498495    0.024811672495332504    
  0.02436727231479    0.02470773240390071    0.025901101253273485    0.028078244529883757    0.03143571266199702    
  0.03624852944021523    0.04291407486916516    0.05200495711453802    0.0642699910297115    0.08058416206072747    
  0.10193391003691905    0.12943513068808918    0.16418474251642695    0.2067579270988773    0.2562794159345864    