#     DFTpy    
  CRYSTAL 
    
  PRIMVEC    
  5.57979310344828    0.0    0.0    
  0.0    5.57979310344828    0.0    
  0.0    0.0    5.57979310344828    
  PRIMCOORD    
  7    1    
  Si    0.0    0.0    0.0    
  Si    0.0    2.78989655172414    2.78989655172414    
  Si    1.39494827586207    4.184844827586211    4.184844827586211    
  Si    2.78989655172414    0.0    2.78989655172414    
  Si    4.184844827586211    1.39494827586207    4.184844827586211    
  Si    2.78989655172414    2.78989655172414    0.0    
  Si    4.184844827586211    4.184844827586211    1.39494827586207    
  BEGIN_BLOCK_DATAGRID_3D    
  3d_datagrid_density    
  BEGIN_DATAGRID_3D#0    
  55    55    55    
  0.0    0.0    0.0    
  5.579793124261015    0.0    0.0    
  0.0    5.579793124261015    0.0    
  0.0    0.0    5.579793124261015    
  0.05108445236104549    0.05985667736315468    0.0872303733284852    0.13846171377344707    0.21271497503174364    
  0.29482931206787555    0.35895073627583385    0.3850004291786406    0.37123402054391774    0.3307313984226406    
  0.279424601344103    0.2283765016055851    0.1830082229045944    0.14512999186644035    0.1146765785083354    
  0.09072214609267193    0.07211185095079989    0.057790989866759124    0.04687126109033142    0.038604017554620354    
  0.03238117951386462    0.027743426531884496    0.024354090054078126    0.021960154111354165    0.020373477704217123    
  0.019465557178347744    0.01915706306497295    0.01940561093707702    0.020202019958241224    0.02157063348893532    
  0.023567492069731442    0.026282572533084227    0.02984934371320369    0.03445107260001827    0.040322602313636054    
  0.0477672840064971    0.05719159529298025    0.06912098329849665    0.08418070011409619    0.10308942708259909    
  0.12668325168173608    0.15585251485299423    0.19124686361165225    0.23272701438201915    0.27846902301919263    
  0.32339321497073525    0.3573661052484793    0.36606678339796084    0.33816212877878654    0.2760585292557632    
  0.19866147602347367    0.12963666550554453    0.08254734335730853    0.05792820593369438    0.05108445236104549    
  0.05985667736315465    0.06867291906959852    0.09654717976279743    0.147598216506708    0.21963373522733476    
  0.2970591834901841    0.3552703786384312    0.3762674811091155    0.3596108307679773    0.3183406364684965    
  0.26763453614119787    0.2178290129308502    0.17390121038761544    0.1374361949016667    0.10826489457716046    
  0.08542712301021946    0.0677705976647261    0.05425505278456662    0.044007764960787614    0.036296835989786266    
  0.030532443203729286    0.02627271589878171    0.023195734662655905    0.021060307359509693    0.01968751513677719    
  0.01895588528628286    0.018791628443189202    0.01915706306497302    0.020047040656073354    0.02148905670138415    
  0.023541225948747125    0.026294804698773506    0.029884865408519777    0.03449791304206994    0.040373534183656044    
  0.04781942760916855    0.057244707397155356    0.06917691200767798    0.08424444745473197    0.10316977989726683    
  0.12679398769113948    0.15602003450705862    0.19152763867730332    0.23323548068470265    0.27943244270966155    
  0.3252638258477376    0.36094653132862475    0.37241639149620637    0.34801441357634794    0.2889884859699717    
  0.21291300982029213    0.14311094521431278    0.09407403563022328    0.06763132187294096    0.05985667736315465    
  0.08723037332848521    0.0965471797627974    0.12609338799841485    0.17724975204761295    0.24467537850595195    
  0.3119367066259177    0.3574102541369439    0.36769965304774016    0.3450224301868293    0.30210230574501223    
  0.2523783721018204    0.20464350160752576    0.16300293639428096    0.12865069429398662    0.10127616066589033    
  0.07990810415267778    0.0634416175345886    0.05089016372917323    0.04142181454401222    0.034337492362390754    
  0.02907795962958895    0.025228238646626603    0.02248734338897497    0.020629831524838944    0.019489041902525577    
  0.018953138213928012    0.018955885286282812    0.01946555717834779    0.020481463617957024    0.022033939506091765    
  0.024182403374643942    0.027018417108028134    0.030677536257321437    0.035348063402382605    0.041271887257582476    
  0.04875649376499662    0.058206577832994724    0.07014278768029147    0.08518403982219762    0.1040340152019124    
  0.12750256350685385    0.15646637462569077    0.19161997155002775    0.23298274190546514    0.27911948883140136    
  0.3258129485739617    0.3644046589511752    0.38198159973023726    0.36671659130339707    0.31727667287323363    
  0.24743459989408534    0.1785928379489254    0.1267228512717095    0.0967983778161448    0.08723037332848521    
  0.13846171377344707    0.14759821650670796    0.17724975204761295    0.22511692820625365    0.2824493989417262    
  0.33310370155410646    0.3603126053993602    0.3565257636201494    0.3266035086341805    0.2821781863509822    
  0.23416385901037517    0.18933648154847765    0.15072285319539236    0.11906003953781259    0.09389687570914544    
  0.07428357727353092    0.05920113230958998    0.047746055674568605    0.039146137898129735    0.032748659744450154    
  0.028035712290130653    0.024626899177401056    0.02224703554417823    0.020689872364822996    0.019803905552126376    
  0.0194890419025256    0.019687515136777238    0.020373477704217144    0.021550222258549273    0.023250591499120763    
  0.025535280954807085    0.028495975978543114    0.03226755414760988    0.037037477128092494    0.04304571009478214    
  0.050593440667301794    0.06007286878976066    0.07198829611297698    0.08693759261231554    0.10558675223071787    
  0.12868194964845603    0.15703180493241978    0.19131412018719385    0.23165478346318674    0.27697607269491775    
  0.3239408449835041    0.36555109459522683    0.39088193792295606    0.3886614213185238    0.35478273120547904    
  0.29770957031240236    0.23492709324070335    0.18286260834978327    0.15009944087549226    0.13846171377344707    
  0.21271497503174364    0.21963373522733476    0.2446753785059519    0.2824493989417262    0.3225039597503406    
  0.35117194735386087    0.357664134025254    0.3397440734553209    0.3036374758156543    0.2589356884223956    
  0.21366540566124076    0.17254356571389262    0.1375525788608515    0.10900839109725804    0.08635716741716686    
  0.06870824155376193    0.05515665439375283    0.04489944097112187    0.037236885271730816    0.03157431723101561    
  0.027444653633279067    0.024507951217522254    0.022518022881057885    0.021290130976358405    0.020689872364822996    
  0.020629831524838896    0.021060307359509648    0.021960154111354116    0.023335615747943617    0.025221778501995126    
  0.02768106112566236    0.030805481821079683    0.03472781763900722    0.03963093021933351    0.04574709663130745    
  0.05336367746387601    0.06285074978799392    0.07468504205854913    0.08943179987209274    0.10770526829189031    
  0.1301639891890914    0.15751018687933868    0.1903611739897117    0.22891694098734833    0.2724455327949688    
  0.3185174148697604    0.36196109926751213    0.394363692273486    0.40602532602190783    0.39115199648465626    
  0.3530010092917914    0.3036246404247875    0.25762631420987353    0.22568213846735782    0.21271497503174364    
  0.2948293120678755    0.2970591834901841    0.3119367066259177    0.3331037015541064    0.3511719473538608    
  0.3567205124214219    0.3445076685064847    0.31570143968976117    0.27624489480470543    0.23314246373190348    
  0.19172408515262004    0.15496838051346434    0.12401440769320375    0.09885832965658652    0.07890296828348742    
  0.06335196302729436    0.0514296920484203    0.04244028673364176    0.035764513351654925    0.03087572212041069    
  0.027365301816861472    0.02493732173952108    0.023375762505192275    0.022518022881057906    0.02224703554417823    
  0.022487343388974994    0.02319573466265595    0.024354090054078174    0.02597046045619905    0.02808171883342543    
  0.03075197886460351    0.03407318855775297    0.03817401826255115    0.043228442810302234    0.04945491931031069    
  0.057119259756167856    0.06655906797531021    0.07821030653262386    0.09259265709296828    0.11025855162989062    
  0.13176625245658377    0.15768483001183103    0.1885267426541264    0.22451077170442962    0.26517337955930653    
  0.3088486822584333    0.3519913618900583    0.38870134044703664    0.4115652960742331    0.4147080227353421    
  0.39774067533036184    0.36722518217296213    0.3338579040827661    0.30766568597389315    0.2948293120678755    
  0.35895073627583385    0.3552703786384313    0.35741025413694383    0.3603126053993602    0.357664134025254    
  0.34450766850648473    0.3194460049794314    0.28493408537839354    0.24557974865332055    0.20595001431375773    
  0.16928927916105818    0.13732799247539115    0.11061849180430439    0.08895910822883468    0.0717720025060419    
  0.058380550295325    0.0481408148404511    0.04046238224618311    0.034810683330765056    0.03073401042684375    
  0.027886338103752416    0.02601631352286936    0.024937321739521047    0.024507951217522278    0.02462689917740101    
  0.025228238646626558    0.026272715898781687    0.027743426531884472    0.02964908406558926    0.032027227970400834    
  0.03494218543993049    0.03848388297428227    0.04277401997754093    0.04797339020438561    0.0542811351478592    
  0.06193499125678462    0.0712309974578385    0.08255129597000262    0.09635644710435333    0.11312996714265275    
  0.13332870653319256    0.15737931522141702    0.18565715731597152    0.21834183018130565    0.2551385046121546    
  0.2949296293707115    0.3353836085559873    0.3726443417474125    0.40162057409813967    0.41751502628513926    
  0.4182953196833598    0.4064028171251153    0.3880548227771864    0.3704695461244467    0.35895073627583385    
  0.38500042917864047    0.3762674811091156    0.36769965304774016    0.3565257636201495    0.3397440734553209    
  0.3157014396897611    0.28493408537839354    0.2498281252089841    0.21349616691331746    0.17870103422502587    
  0.1473208449237551    0.12029906920224677    0.0978303474956735    0.07962686577750654    0.06518172017235453    
  0.05394867482234014    0.04540685174176875    0.039064489554650236    0.03447227939548572    0.03125552842446972    
  0.029129978050002718    0.027886338103752427    0.027365301816861434    0.027444653633279116    0.02803571229013064    
  0.029077959629588857    0.03053244320372924    0.03238117951386457    0.03463196387226722    0.03732081193303918    
  0.040509042510705494    0.04428099313313395    0.048747917015664825    0.0540535691062105    0.06037328543624646    
  0.06791195416296962    0.07691802640485002    0.08771036891633589    0.10067943974320351    0.11623595672062927    
  0.1347440277487023    0.1564979223016542    0.1817250334985341    0.2105211896417469    0.24267058815794063    
  0.2774074682971382    0.31319318338409763    0.3475661194772331    0.37724936931218195    0.3988383751992648    
  0.41009982495272407    0.4111958756874131    0.4048246660158317    0.39496704802462096    0.38500042917864047    
  0.37123402054391774    0.35961083076797734    0.34502243018682927    0.3266035086341805    0.30363747581565437    
  0.2762448948047055    0.24557974865332055    0.21349616691331746    0.18197971998910784    0.15267906161407807    
  0.12667608388918764    0.10446070626395892    0.08604175084650086    0.07113177329461705    0.059325417380674046    
  0.05020112727802169    0.043345281311884656    0.03835588737890402    0.03486628912966503    0.03257553175192752    
  0.03125552842446973    0.0307340104268438    0.030875722120410724    0.03157431723101561    0.032748659744450195    
  0.03433749236239077    0.03629683598978633    0.038604017554620354    0.041263139972562764    0.044305224602346004    
  0.04778402749400032    0.051773837535146625    0.05637218899979902    0.0617032348418911    0.067915766322279    
  0.07517941351008703    0.08369337898071365    0.09371036582842124    0.10554587349362224    0.11953793294534681    
  0.13597305550853517    0.15503972235230498    0.17683213228667335    0.20134186108463653    0.22836627553421204    
  0.25735038191979165    0.2872435032769847    0.3164345692345634    0.342825071341352    0.3641483606945212    
  0.3785840954797078    0.3854359809182885    0.38539809538863307    0.3801113563610305    0.37123402054391774    
  0.3307313984226406    0.3183406364684965    0.30210230574501223    0.2821781863509822    0.25893568842239567    
  0.23314246373190348    0.20595001431375773    0.17870103422502595    0.15267906161407807    0.12890210783935743    
  0.10800754229311088    0.09024212640482257    0.07554687729254969    0.0636887221330419    0.054369349820784674    
  0.04727345225473661    0.042077352944664005    0.038460929271126335    0.036135474858955845    0.034866289129665023    
  0.03447227939548574    0.03481068333076514    0.035764513351654925    0.037236885271730795    0.039146137898129776    
  0.041421814544012246    0.04400776496078766    0.04687126109033141    0.05000826501865462    0.05344002454664726    
  0.05720727078610723    0.06136930889862964    0.0660071881046868    0.07122498774732434    0.07714571533812363    
  0.08390594029128007    0.09166047427058513    0.10060190624408086    0.11097453682898932    0.12304795567239755    
  0.1370476509421632    0.1530915890069827    0.17117860989283176    0.1912059163029373    0.21294715778180762    
  0.23596615628742398    0.2595179181484    0.2825075810527075    0.3035475483920731    0.32113506198163977    
  0.333950343857951    0.34118756855717025    0.342730775932187    0.3390286279933493    0.3307313984226406    
  0.279424601344103    0.2676345361411979    0.25237837210182046    0.23416385901037523    0.21366540566124076    
  0.19172408515262004    0.1692892791610582    0.14732084492375508    0.12667608388918766    0.10800754229311094    
  0.09170373871092061    0.0778974523352    0.0665333881446779    0.057452287533340925    0.05044803550786139    
  0.04528938543964197    0.04172977100712504    0.03952589402202996    0.03846092927112636    0.038355887378904    
  0.03906448955465026    0.040462382246183135    0.04244028673364175    0.04489944097112188    0.04774605567456863    
  0.050890163729173196    0.05425505278456664    0.0577909898667591    0.06147966456635324    0.06532671395882947    
  0.06935388487657546    0.07360001747702005    0.07812666623764405    0.0830190203926332    0.08837975086751214    
  0.09432192020545861    0.10097026191769905    0.10847467479953589    0.11702300343659666    0.12682584149695642    
  0.13806137687950418    0.1508096234291525    0.1650230341831583    0.18054219336002922    0.19711289525202266    
  0.21436166163073947    0.23174016325932864    0.24849083262872337    0.26367881238586893    0.27630168128617766    
  0.285454375876902    0.2904929337492041    0.2911214023115333    0.2873589161393738    0.279424601344103    
  0.22837650160558517    0.21782901293085022    0.20464350160752576    0.1893364815484777    0.17254356571389262    
  0.15496838051346432    0.13732799247539118    0.12029906920224681    0.10446070626395892    0.09024212640482256    
  0.0778974523352    0.06752117192862667    0.05909192522349734    0.052517025942328745    0.047660662487994    
  0.04435979107558583    0.042439436424503395    0.04172977100712504    0.042077352944664005    0.04334528131188467    
  0.04540685174176877    0.04814081484045114    0.0514296920484203    0.05515665439375285    0.059201132309589996    
  0.06344161753458862    0.06777059766472612    0.07211185095079996    0.07642451577088523    0.08069239228128182    
  0.08491349414892492    0.08910197120353741    0.09329743409027197    0.09756869115228942    0.10200768374786698    
  0.10672082730212287    0.11182657831625115    0.11746103867562054    0.12378307202080886    0.13096281723020695    
  0.13914345773128103    0.14838864151595668    0.15864651946850794    0.16975050828526814    0.1814431620097469    
  0.19339010693815645    0.20516845178669313    0.21624910827215793    0.2260092619090176    0.23379510316481983    
  0.23901898869694574    0.24124677985066484    0.2402353396275771    0.23591829471440823    0.22837650160558517    
  0.18300822290459437    0.17390121038761544    0.16300293639428096    0.1507228531953923    0.13755257886085145    
  0.12401440769320375    0.11061849180430436    0.09783034749567349    0.08604175084650083    0.07554687729254966    
  0.0665333881446779    0.059091925223497335    0.05323613205640426    0.04892342693798441    0.04607370765484699    
  0.0445872549989166    0.04435979107558583    0.045289385439641984    0.04727345225473654    0.050201127278021694    
  0.05394867482234015    0.058380550295325    0.06335196302729439    0.06870824155376198    0.07428357727353092    
  0.07990810415267778    0.08542712301021946    0.09072214609267194    0.09571753027007784    0.10036944287101814    
  0.10465218389940158    0.10855791490415982    0.11210847175259017    0.11536432803523483    0.11842145017293854    
  0.12140144148588426    0.12444469092480161    0.1277076253548684    0.13135667862667064    0.13555197703874836    
  0.14041990663613024    0.14602032108958943    0.15231945738823577    0.15918074692982936    0.1663777450428291    
  0.17361878900348596    0.18056563560700428    0.18683976126748678    0.1920311633559321    0.19573012920923713    
  0.1975806183572726    0.19732674752594812    0.19482602526814946    0.19003626467977844    0.18300822290459437    
  0.1451299918664404    0.1374361949016667    0.12865069429398662    0.11906003953781259    0.10900839109725809    
  0.09885832965658649    0.08895910822883468    0.07962686577750654    0.07113177329461705    0.06368872213304193    
  0.05745228753334091    0.05251702594232868    0.04892342693798444    0.04667018620167944    0.04573159351602545    
  0.046073707654847    0.04766066248799394    0.050448035507861345    0.054369349820784646    0.05932541738067401    
  0.0651817201723545    0.07177200250604186    0.07890296828348739    0.08635716741716687    0.09389687570914543    
  0.10127616066589028    0.10826489457716043    0.11467657850833543    0.12038314986914671    0.12530806589800353    
  0.12940911860010776    0.1326718002475097    0.13511986487904418    0.1368287097705311    0.1379251780474938    
  0.13857462049803088    0.13896756742670752    0.13931018022445868    0.13981034831660075    0.14065408552722822    
  0.14197900451676437    0.14385435484494014    0.14626913867656088    0.1491266900279438    0.1522498811124317    
  0.1554014451993205    0.15831238754941157    0.16070437039533172    0.1623031663993471    0.16285526917748508    
  0.1621545423465981    0.16006554929522893    0.15652579356760593    0.1515313042297828    0.1451299918664404    
  0.11467657850833546    0.1082648945771605    0.1012761606658903    0.09389687570914547    0.0863571674171669    
  0.07890296828348743    0.07177200250604193    0.06518172017235456    0.059325417380674046    0.05436934982078468    
  0.050448035507861366    0.04766066248799396    0.046073707654847015    0.045731593516025466    0.04667018620167943    
  0.0489234269379844    0.05251702594232865    0.057452287533340876    0.06368872213304186    0.071131773294617    
  0.0796268657775065    0.08895910822883467    0.09885832965658647    0.10900839109725804    0.11906003953781259    
  0.12865069429398654    0.13743619490166664    0.14512999186644038    0.15153130422978278    0.15652579356760588    
  0.1600655492952289    0.1621545423465981    0.16285526917748505    0.16230316639934705    0.16070437039533164    
  0.15831238754941152    0.1554014451993205    0.15224988111243168    0.14912669002794376    0.14626913867656086    
  0.14385435484494014    0.1419790045167644    0.14065408552722822    0.13981034831660075    0.1393101802244587    
  0.1389675674267076    0.13857462049803096    0.13792517804749388    0.13682870977053113    0.13511986487904426    
  0.13267180024750974    0.1294091186001078    0.12530806589800356    0.12038314986914671    0.11467657850833546    
  0.09072214609267198    0.08542712301021949    0.07990810415267782    0.07428357727353092    0.06870824155376197    
  0.06335196302729439    0.058380550295325    0.05394867482234016    0.05020112727802169    0.0472734522547366    
  0.045289385439642005    0.04435979107558585    0.044587254998916644    0.046073707654846995    0.048923426937984404    
  0.053236132056404276    0.05909192522349731    0.06653338814467785    0.07554687729254964    0.08604175084650081    
  0.09783034749567343    0.11061849180430434    0.12401440769320372    0.13755257886085148    0.15072285319539228    
  0.1630029363942809    0.17390121038761533    0.18300822290459437    0.1900362646797784    0.1948260252681494    
  0.1973267475259481    0.1975806183572726    0.1957301292092371    0.19203116335593204    0.18683976126748678    
  0.18056563560700425    0.1736187890034859    0.16637774504282915    0.1591807469298294    0.1523194573882358    
  0.14602032108958943    0.14041990663613022    0.13555197703874836    0.13135667862667064    0.12770762535486843    
  0.12444469092480163    0.12140144148588428    0.11842145017293858    0.11536432803523489    0.11210847175259024    
  0.10855791490415988    0.10465218389940158    0.10036944287101812    0.09571753027007793    0.09072214609267198    
  0.07211185095079996    0.06777059766472612    0.06344161753458864    0.05920113230959002    0.05515665439375288    
  0.051429692048420295    0.04814081484045114    0.04540685174176874    0.0433452813118847    0.042077352944664005    
  0.04172977100712505    0.042439436424503395    0.04435979107558584    0.04766066248799398    0.052517025942328696    
  0.059091925223497335    0.06752117192862665    0.07789745233519996    0.09024212640482251    0.10446070626395891    
  0.12029906920224677    0.13732799247539115    0.15496838051346432    0.17254356571389262    0.18933648154847757    
  0.20464350160752565    0.21782901293085014    0.2283765016055851    0.23591829471440817    0.240235339627577    
  0.24124677985066484    0.23901898869694568    0.23379510316481977    0.22600926190901757    0.21624910827215788    
  0.20516845178669313    0.1933901069381564    0.18144316200974692    0.1697505082852682    0.15864651946850794    
  0.14838864151595665    0.13914345773128103    0.13096281723020692    0.12378307202080886    0.11746103867562058    
  0.11182657831625122    0.10672082730212291    0.10200768374786703    0.09756869115228942    0.09329743409027198    
  0.08910197120353738    0.08491349414892493    0.08069239228128185    0.07642451577088526    0.07211185095079996    
  0.05779098986675914    0.05425505278456662    0.05089016372917322    0.047746055674568626    0.04489944097112189    
  0.04244028673364177    0.0404623822461831    0.03906448955465027    0.03835588737890402    0.038460929271126376    
  0.03952589402202997    0.04172977100712502    0.045289385439642005    0.0504480355078614    0.05745228753334089    
  0.06653338814467787    0.07789745233519996    0.09170373871092058    0.10800754229311084    0.12667608388918764    
  0.14732084492375497    0.16928927916105815    0.19172408515262    0.21366540566124076    0.23416385901037512    
  0.25237837210182035    0.26763453614119787    0.279424601344103    0.2873589161393737    0.29112140231153316    
  0.2904929337492041    0.2854543758769019    0.27630168128617766    0.2636788123858689    0.24849083262872335    
  0.23174016325932859    0.21436166163073941    0.1971128952520227    0.1805421933600293    0.16502303418315833    
  0.1508096234291525    0.13806137687950418    0.1268258414969564    0.11702300343659666    0.1084746747995359    
  0.10097026191769914    0.09432192020545865    0.08837975086751217    0.08301902039263323    0.07812666623764412    
  0.07360001747702002    0.06935388487657543    0.06532671395882944    0.06147966456635329    0.05779098986675914    
  0.046871261090331455    0.04400776496078765    0.04142181454401228    0.03914613789812978    0.037236885271730774    
  0.03576451335165493    0.03481068333076515    0.034472279395485764    0.03486628912966504    0.036135474858955886    
  0.03846092927112633    0.042077352944664005    0.04727345225473663    0.054369349820784674    0.06368872213304189    
  0.07554687729254966    0.09024212640482253    0.10800754229311084    0.12890210783935735    0.15267906161407807    
  0.17870103422502587    0.20595001431375765    0.23314246373190342    0.25893568842239556    0.2821781863509822    
  0.3021023057450122    0.31834063646849636    0.3307313984226406    0.3390286279933493    0.34273077593218687    
  0.3411875685571703    0.333950343857951    0.3211350619816397    0.3035475483920731    0.2825075810527075    
  0.2595179181483999    0.23596615628742396    0.21294715778180764    0.19120591630293732    0.1711786098928318    
  0.1530915890069827    0.13704765094216326    0.12304795567239754    0.11097453682898936    0.1006019062440808    
  0.09166047427058517    0.08390594029128011    0.07714571533812366    0.07122498774732433    0.06600718810468682    
  0.06136930889862964    0.05720727078610728    0.05344002454664724    0.05000826501865464    0.046871261090331455    
  0.038604017554620354    0.036296835989786266    0.034337492362390754    0.032748659744450175    0.03157431723101562    
  0.03087572212041068    0.030734010426843775    0.03125552842446971    0.032575531751927546    0.03486628912966506    
  0.03835588737890403    0.04334528131188462    0.050201127278021736    0.05932541738067403    0.07113177329461702    
  0.08604175084650086    0.10446070626395887    0.12667608388918758    0.15267906161407802    0.18197971998910784    
  0.21349616691331735    0.2455797486533205    0.2762448948047055    0.3036374758156543    0.3266035086341805    
  0.3450224301868292    0.3596108307679773    0.3712340205439177    0.38011135636103044    0.38539809538863307    
  0.38543598091828846    0.3785840954797078    0.3641483606945212    0.342825071341352    0.3164345692345634    
  0.2872435032769848    0.25735038191979165    0.2283662755342121    0.20134186108463661    0.1768321322866734    
  0.15503972235230498    0.13597305550853517    0.11953793294534681    0.10554587349362221    0.09371036582842124    
  0.08369337898071368    0.07517941351008697    0.067915766322279    0.0617032348418911    0.056372188999799046    
  0.05177383753514658    0.0477840274940003    0.044305224602346004    0.041263139972562764    0.038604017554620354    
  0.03238117951386459    0.030532443203729286    0.029077959629588902    0.02803571229013063    0.027444653633279137    
  0.02736530181686146    0.027886338103752406    0.029129978050002694    0.03125552842446975    0.034472279395485764    
  0.03906448955465024    0.04540685174176876    0.05394867482234016    0.06518172017235456    0.0796268657775065    
  0.09783034749567346    0.12029906920224671    0.14732084492375508    0.17870103422502587    0.2134961669133174    
  0.249828125208984    0.28493408537839343    0.315701439689761    0.3397440734553209    0.3565257636201494    
  0.36769965304774005    0.37626748110911556    0.3850004291786406    0.394967048024621    0.4048246660158317    
  0.411195875687413    0.41009982495272407    0.3988383751992648    0.37724936931218195    0.34756611947723304    
  0.3131931833840976    0.2774074682971382    0.24267058815794068    0.21052118964174693    0.18172503349853417    
  0.15649792230165427    0.1347440277487024    0.11623595672062927    0.10067943974320348    0.08771036891633592    
  0.07691802640485007    0.06791195416296965    0.06037328543624651    0.0540535691062105    0.048747917015664825    
  0.04428099313313395    0.040509042510705494    0.03732081193303918    0.03463196387226719    0.03238117951386459    
  0.027743426531884448    0.026272715898781666    0.025228238646626558    0.02462689917740108    0.024507951217522233    
  0.024937321739521047    0.026016313522869337    0.02788633810375244    0.0307340104268438    0.03481068333076511    
  0.04046238224618311    0.04814081484045109    0.05838055029532501    0.07177200250604189    0.08895910822883465    
  0.11061849180430434    0.1373279924753911    0.16928927916105815    0.20595001431375762    0.24557974865332055    
  0.28493408537839343    0.3194460049794313    0.3445076685064847    0.357664134025254    0.3603126053993602    
  0.3574102541369439    0.3552703786384313    0.35895073627583385    0.3704695461244467    0.38805482277718634    
  0.4064028171251153    0.4182953196833598    0.4175150262851392    0.40162057409813967    0.3726443417474125    
  0.3353836085559872    0.29492962937071143    0.2551385046121546    0.21834183018130568    0.18565715731597154    
  0.15737931522141707    0.13332870653319256    0.11312996714265272    0.09635644710435337    0.08255129597000262    
  0.07123099745783855    0.06193499125678462    0.05428113514785925    0.04797339020438563    0.04277401997754093    
  0.0384838829742822    0.03494218543993049    0.03202722797040079    0.029649084065589283    0.027743426531884448    
  0.024354090054078195    0.023195734662655926    0.02248734338897504    0.022247035544178253    0.022518022881057906    
  0.023375762505192275    0.024937321739521068    0.027365301816861483    0.030875722120410738    0.03576451335165499    
  0.04244028673364178    0.0514296920484203    0.06335196302729436    0.07890296828348742    0.09885832965658647    
  0.12401440769320372    0.1549683805134643    0.19172408515261993    0.2331424637319034    0.2762448948047055    
  0.315701439689761    0.3445076685064846    0.3567205124214219    0.35117194735386087    0.3331037015541065    
  0.31193670662591777    0.2970591834901841    0.2948293120678756    0.30766568597389315    0.3338579040827661    