
     Program PWSCF v.6.5 starts on 30Mar2023 at 20:38:46 

     This program is part of the open-source Quantum ESPRESSO suite
     for quantum simulation of materials; please cite
         "P. Giannozzi et al., J. Phys.:Condens. Matter 21 395502 (2009);
         "P. Giannozzi et al., J. Phys.:Condens. Matter 29 465901 (2017);
          URL http://www.quantum-espresso.org", 
     in publications or presentations arising from this work. More details at
     http://www.quantum-espresso.org/quote

     Serial version
     Reading input from /home/valeria/Documents/DFTPY/Fitting_densities/Si7-CD/DATA2/Si25.in
Warning: card &IONS ignored
Warning: card / ignored
Warning: card &CELL ignored
Warning: card / ignored
Warning: card &FCP ignored
Warning: card / ignored
Warning: card &RISM ignored
Warning: card / ignored

     Current dimensions of program PWSCF are:
     Max number of different atomic species (ntypx) = 10
     Max number of k-points (npk) =  40000
     Max angular momentum in pseudopotentials (lmaxx) =  3

     WARNING: check_stop already initialized
     Message from routine setup:
     using ibrav=0 with symmetry is DISCOURAGED, use correct ibrav instead

     G-vector sticks info
     --------------------
     sticks:   dense  smooth     PW     G-vecs:    dense   smooth      PW
     Sum        3505    3505    965               155331   155331   22335



     bravais-lattice index     =            0
     lattice parameter (alat)  =      13.5165  a.u.
     unit-cell volume          =    2469.4042 (a.u.)^3
     number of atoms/cell      =            7
     number of atomic types    =            1
     number of electrons       =        28.00
     number of Kohn-Sham states=           18
     kinetic-energy cutoff     =      60.0000  Ry
     charge density cutoff     =     240.0000  Ry
     convergence threshold     =      1.0E-06
     mixing beta               =       0.7000
     number of iterations used =            8  plain     mixing
     Exchange-correlation= LDA
                           (   1   1   0   0   0   0   0)

     celldm(1)=  13.516494  celldm(2)=   0.000000  celldm(3)=   0.000000
     celldm(4)=   0.000000  celldm(5)=   0.000000  celldm(6)=   0.000000

     crystal axes: (cart. coord. in units of alat)
               a(1) = (   1.000000   0.000000   0.000000 )  
               a(2) = (   0.000000   1.000000   0.000000 )  
               a(3) = (   0.000000   0.000000   1.000000 )  

     reciprocal axes: (cart. coord. in units 2 pi/alat)
               b(1) = (  1.000000  0.000000  0.000000 )  
               b(2) = (  0.000000  1.000000  0.000000 )  
               b(3) = (  0.000000  0.000000  1.000000 )  


     PseudoPot. # 1 for Si read from file:
     /home/valeria/Desktop/programs/dftpy/examples/ofpp/EAC/upf/blps/si.lda.upf
     MD5 check sum: 946fc5a8d23174f015515f8139e499ed
     Pseudo is Norm-conserving, Zval =  4.0
     DFTpy
     Using radial grid of 1601 points,  1 beta functions with: 
                l(1) =   0

     atomic species   valence    mass     pseudopotential
        Si             4.00    28.08000     Si( 1.00)

     24 Sym. Ops. (no inversion) found (18 have fractional translation)



   Cartesian axes

     site n.     atom                  positions (alat units)
         1           Si  tau(   1) = (   0.0000000   0.0000000   0.0000000  )
         2           Si  tau(   2) = (   0.0000000   0.5000000   0.5000000  )
         3           Si  tau(   3) = (   0.2500000   0.7500000   0.7500000  )
         4           Si  tau(   4) = (   0.5000000   0.0000000   0.5000000  )
         5           Si  tau(   5) = (   0.7500000   0.2500000   0.7500000  )
         6           Si  tau(   6) = (   0.5000000   0.5000000   0.0000000  )
         7           Si  tau(   7) = (   0.7500000   0.7500000   0.2500000  )

     number of k points=   220  Gaussian smearing, width (Ry)=  0.0050

     Number of k-points >= 100: set verbosity='high' to print them.

     Dense  grid:   155331 G-vectors     FFT dimensions: (  72,  72,  72)

     Estimated max dynamical RAM per process >       1.28 GB

     Initial potential from superposition of free atoms

     starting charge   27.99552, renormalised to   28.00000
     Starting wfcs are random

     total cpu time spent up to now is      122.4 secs

     Self-consistent Calculation

     iteration #  1     ecut=    60.00 Ry     beta= 0.70
     Davidson diagonalization with overlap
     ethr =  1.00E-02,  avg # of iterations =  8.0

     Threshold (ethr) on eigenvalues was too large:
     Diagonalizing with lowered threshold

     Davidson diagonalization with overlap
     ethr =  3.86E-04,  avg # of iterations =  2.6

     total cpu time spent up to now is     1501.0 secs

     total energy              =     -55.24542022 Ry
     Harris-Foulkes estimate   =     -55.29857935 Ry
     estimated scf accuracy    <       0.10869429 Ry

     iteration #  2     ecut=    60.00 Ry     beta= 0.70
     Davidson diagonalization with overlap
     ethr =  3.88E-04,  avg # of iterations =  3.4

     total cpu time spent up to now is     1939.6 secs

     total energy              =     -55.24818828 Ry
     Harris-Foulkes estimate   =     -55.30497998 Ry
     estimated scf accuracy    <       0.12493642 Ry

     iteration #  3     ecut=    60.00 Ry     beta= 0.70
     Davidson diagonalization with overlap
     ethr =  3.88E-04,  avg # of iterations =  2.0

     total cpu time spent up to now is     2293.6 secs

     total energy              =     -55.27466182 Ry
     Harris-Foulkes estimate   =     -55.27597161 Ry
     estimated scf accuracy    <       0.00388734 Ry

     iteration #  4     ecut=    60.00 Ry     beta= 0.70
     Davidson diagonalization with overlap
     ethr =  1.39E-05,  avg # of iterations =  6.2

     total cpu time spent up to now is     2837.7 secs

     total energy              =     -55.27625148 Ry
     Harris-Foulkes estimate   =     -55.27677637 Ry
     estimated scf accuracy    <       0.00154301 Ry

     iteration #  5     ecut=    60.00 Ry     beta= 0.70
     Davidson diagonalization with overlap
     ethr =  5.51E-06,  avg # of iterations =  2.2

     total cpu time spent up to now is     3155.2 secs

     total energy              =     -55.27617308 Ry
     Harris-Foulkes estimate   =     -55.27635846 Ry
     estimated scf accuracy    <       0.00035892 Ry

     iteration #  6     ecut=    60.00 Ry     beta= 0.70
     Davidson diagonalization with overlap
     ethr =  1.28E-06,  avg # of iterations =  4.0

     total cpu time spent up to now is     3653.9 secs

     total energy              =     -55.27630507 Ry
     Harris-Foulkes estimate   =     -55.27635700 Ry
     estimated scf accuracy    <       0.00013983 Ry

     iteration #  7     ecut=    60.00 Ry     beta= 0.70
     Davidson diagonalization with overlap
     ethr =  4.99E-07,  avg # of iterations =  2.0

     total cpu time spent up to now is     4013.6 secs

     total energy              =     -55.27632057 Ry
     Harris-Foulkes estimate   =     -55.27632280 Ry
     estimated scf accuracy    <       0.00000539 Ry

     iteration #  8     ecut=    60.00 Ry     beta= 0.70
     Davidson diagonalization with overlap
     ethr =  1.92E-08,  avg # of iterations =  4.1

     total cpu time spent up to now is     4577.9 secs

     total energy              =     -55.27632377 Ry
     Harris-Foulkes estimate   =     -55.27632396 Ry
     estimated scf accuracy    <       0.00000112 Ry

     iteration #  9     ecut=    60.00 Ry     beta= 0.70
     Davidson diagonalization with overlap
     ethr =  3.99E-09,  avg # of iterations =  1.1

     total cpu time spent up to now is     4895.1 secs

     End of self-consistent calculation

     Number of k-points >= 100: set verbosity='high' to print the bands.

     the Fermi energy is    -0.4159 ev

!    total energy              =     -55.27632334 Ry
     Harris-Foulkes estimate   =     -55.27632381 Ry
     estimated scf accuracy    <       0.00000058 Ry

     The total energy is the sum of the following terms:

     one-electron contribution =      -8.12716200 Ry
     hartree contribution      =       8.76496085 Ry
     xc contribution           =     -14.29495747 Ry
     ewald contribution        =     -41.61799371 Ry
     smearing contrib. (-TS)   =      -0.00117102 Ry

     convergence has been achieved in   9 iterations

 Energies determined by pw2casino tool
 -------------------------------------
 Kinetic energy      8.3380466259295378       au  =     16.676093251859076       Ry
 Local energy       -12.401627625188148       au  =    -24.803255250376296       Ry
 Non-Local energy    0.0000000000000000       au  =     0.0000000000000000       Ry
 Ewald energy       -20.808996854562359       au  =    -41.617993709124718       Ry
 xc contribution    -7.1474787357439409       au  =    -14.294957471487882       Ry
 hartree energy      4.3824804274290603       au  =     8.7649608548581206       Ry
 Smearing (-TS)     -5.8550879558167551E-004  au  =    -1.1710175911633510E-003  Ry
 Total energy       -27.638161670852142       au  =    -55.276323341704284       Ry
 -------------------------------------
 Total energy0      -27.638161670931432       au  =    -55.276323341862863       Ry
 External energy0    0.0000000000000000       au  =     0.0000000000000000       Ry
 -------------------------------------


     Writing output data file ./si.save/
