
     Program PWSCF v.6.5 starts on 20Mar2023 at 15:25:33 

     This program is part of the open-source Quantum ESPRESSO suite
     for quantum simulation of materials; please cite
         "P. Giannozzi et al., J. Phys.:Condens. Matter 21 395502 (2009);
         "P. Giannozzi et al., J. Phys.:Condens. Matter 29 465901 (2017);
          URL http://www.quantum-espresso.org", 
     in publications or presentations arising from this work. More details at
     http://www.quantum-espresso.org/quote

     Serial version
     Reading input from /home/valeria/Documents/DFTPY/Fitting_densities/Si7-CD/DATA2/Si5.in
Warning: card &IONS ignored
Warning: card / ignored
Warning: card &CELL ignored
Warning: card / ignored
Warning: card &FCP ignored
Warning: card / ignored
Warning: card &RISM ignored
Warning: card / ignored

     Current dimensions of program PWSCF are:
     Max number of different atomic species (ntypx) = 10
     Max number of k-points (npk) =  40000
     Max angular momentum in pseudopotentials (lmaxx) =  3

     WARNING: check_stop already initialized
     Message from routine setup:
     using ibrav=0 with symmetry is DISCOURAGED, use correct ibrav instead

     G-vector sticks info
     --------------------
     sticks:   dense  smooth     PW     G-vecs:    dense   smooth      PW
     Sum        1649    1649    481                50061    50061    7809



     bravais-lattice index     =            0
     lattice parameter (alat)  =       9.2705  a.u.
     unit-cell volume          =     796.7205 (a.u.)^3
     number of atoms/cell      =            7
     number of atomic types    =            1
     number of electrons       =        28.00
     number of Kohn-Sham states=           18
     kinetic-energy cutoff     =      60.0000  Ry
     charge density cutoff     =     240.0000  Ry
     convergence threshold     =      1.0E-06
     mixing beta               =       0.7000
     number of iterations used =            8  plain     mixing
     Exchange-correlation= LDA
                           (   1   1   0   0   0   0   0)

     celldm(1)=   9.270475  celldm(2)=   0.000000  celldm(3)=   0.000000
     celldm(4)=   0.000000  celldm(5)=   0.000000  celldm(6)=   0.000000

     crystal axes: (cart. coord. in units of alat)
               a(1) = (   1.000000   0.000000   0.000000 )  
               a(2) = (   0.000000   1.000000   0.000000 )  
               a(3) = (   0.000000   0.000000   1.000000 )  

     reciprocal axes: (cart. coord. in units 2 pi/alat)
               b(1) = (  1.000000  0.000000  0.000000 )  
               b(2) = (  0.000000  1.000000  0.000000 )  
               b(3) = (  0.000000  0.000000  1.000000 )  


     PseudoPot. # 1 for Si read from file:
     /home/valeria/Desktop/programs/dftpy/examples/ofpp/EAC/upf/blps/si.lda.upf
     MD5 check sum: 946fc5a8d23174f015515f8139e499ed
     Pseudo is Norm-conserving, Zval =  4.0
     DFTpy
     Using radial grid of 1601 points,  1 beta functions with: 
                l(1) =   0

     atomic species   valence    mass     pseudopotential
        Si             4.00    28.08000     Si( 1.00)

     24 Sym. Ops. (no inversion) found (18 have fractional translation)



   Cartesian axes

     site n.     atom                  positions (alat units)
         1           Si  tau(   1) = (   0.0000000   0.0000000   0.0000000  )
         2           Si  tau(   2) = (   0.0000000   0.5000000   0.5000000  )
         3           Si  tau(   3) = (   0.2500000   0.7500000   0.7500000  )
         4           Si  tau(   4) = (   0.5000000   0.0000000   0.5000000  )
         5           Si  tau(   5) = (   0.7500000   0.2500000   0.7500000  )
         6           Si  tau(   6) = (   0.5000000   0.5000000   0.0000000  )
         7           Si  tau(   7) = (   0.7500000   0.7500000   0.2500000  )

     number of k points=   220  Gaussian smearing, width (Ry)=  0.0050

     Number of k-points >= 100: set verbosity='high' to print them.

     Dense  grid:    50061 G-vectors     FFT dimensions: (  48,  48,  48)

     Estimated max dynamical RAM per process >     422.63 MB

     Initial potential from superposition of free atoms

     starting charge   27.99552, renormalised to   28.00000
     Starting wfcs are random

     total cpu time spent up to now is       34.4 secs

     Self-consistent Calculation

     iteration #  1     ecut=    60.00 Ry     beta= 0.70
     Davidson diagonalization with overlap
     ethr =  1.00E-02,  avg # of iterations =  7.6

     Threshold (ethr) on eigenvalues was too large:
     Diagonalizing with lowered threshold

     Davidson diagonalization with overlap
     ethr =  8.84E-04,  avg # of iterations =  1.1

     total cpu time spent up to now is      376.9 secs

     total energy              =     -55.98028292 Ry
     Harris-Foulkes estimate   =     -56.10215194 Ry
     estimated scf accuracy    <       0.24950471 Ry

     iteration #  2     ecut=    60.00 Ry     beta= 0.70
     Davidson diagonalization with overlap
     ethr =  8.91E-04,  avg # of iterations =  2.0

     total cpu time spent up to now is      484.2 secs

     total energy              =     -56.01259277 Ry
     Harris-Foulkes estimate   =     -56.05194028 Ry
     estimated scf accuracy    <       0.06629587 Ry

     iteration #  3     ecut=    60.00 Ry     beta= 0.70
     Davidson diagonalization with overlap
     ethr =  2.37E-04,  avg # of iterations =  2.1

     total cpu time spent up to now is      597.3 secs

     total energy              =     -56.03053144 Ry
     Harris-Foulkes estimate   =     -56.03345165 Ry
     estimated scf accuracy    <       0.00645843 Ry

     iteration #  4     ecut=    60.00 Ry     beta= 0.70
     Davidson diagonalization with overlap
     ethr =  2.31E-05,  avg # of iterations =  4.0

     total cpu time spent up to now is      700.2 secs

     total energy              =     -56.03171611 Ry
     Harris-Foulkes estimate   =     -56.03172513 Ry
     estimated scf accuracy    <       0.00005399 Ry

     iteration #  5     ecut=    60.00 Ry     beta= 0.70
     Davidson diagonalization with overlap
     ethr =  1.93E-07,  avg # of iterations =  5.1

     total cpu time spent up to now is      861.8 secs

     total energy              =     -56.03173486 Ry
     Harris-Foulkes estimate   =     -56.03173642 Ry
     estimated scf accuracy    <       0.00000354 Ry

     iteration #  6     ecut=    60.00 Ry     beta= 0.70
     Davidson diagonalization with overlap
     ethr =  1.26E-08,  avg # of iterations =  2.0

     total cpu time spent up to now is      953.7 secs

     End of self-consistent calculation

     Number of k-points >= 100: set verbosity='high' to print the bands.

     the Fermi energy is     8.2267 ev

!    total energy              =     -56.03173526 Ry
     Harris-Foulkes estimate   =     -56.03173536 Ry
     estimated scf accuracy    <       0.00000015 Ry

     The total energy is the sum of the following terms:

     one-electron contribution =      17.92278367 Ry
     hartree contribution      =       4.16229687 Ry
     xc contribution           =     -17.43678522 Ry
     ewald contribution        =     -60.67967021 Ry
     smearing contrib. (-TS)   =      -0.00036036 Ry

     convergence has been achieved in   6 iterations

 Energies determined by pw2casino tool
 -------------------------------------
 Kinetic energy      11.348427411141769       au  =     22.696854822283537       Ry
 Local energy       -2.3870355755858750       au  =    -4.7740711511717500       Ry
 Non-Local energy    0.0000000000000000       au  =     0.0000000000000000       Ry
 Ewald energy       -30.339835106421475       au  =    -60.679670212842950       Ry
 xc contribution    -8.7183926089986734       au  =    -17.436785217997347       Ry
 hartree energy      2.0811484328011467       au  =     4.1622968656022934       Ry
 Smearing (-TS)     -1.8018099966895230E-004  au  =    -3.6036199933790460E-004  Ry
 Total energy       -28.015867628052323       au  =    -56.031735256104646       Ry
 -------------------------------------
 Total energy0      -28.015867628062779       au  =    -56.031735256125557       Ry
 External energy0    0.0000000000000000       au  =     0.0000000000000000       Ry
 -------------------------------------


     Writing output data file ./si.save/
