#     DFTpy    
  CRYSTAL 
    
  PRIMVEC    
  4.905724137931031    0.0    0.0    
  0.0    4.905724137931031    0.0    
  0.0    0.0    4.905724137931031    
  PRIMCOORD    
  7    1    
  Si    0.0    0.0    0.0    
  Si    0.0    2.4528620689655205    2.4528620689655205    
  Si    1.2264310344827603    3.679293103448281    3.679293103448281    
  Si    2.4528620689655205    0.0    2.4528620689655205    
  Si    3.679293103448281    1.2264310344827603    3.679293103448281    
  Si    2.4528620689655205    2.4528620689655205    0.0    
  Si    3.679293103448281    3.679293103448281    1.2264310344827603    
  BEGIN_BLOCK_DATAGRID_3D    
  3d_datagrid_density    
  BEGIN_DATAGRID_3D#0    
  49    49    49    
  0.0    0.0    0.0    
  4.905724156229476    0.0    0.0    
  0.0    4.905724156229476    0.0    
  0.0    0.0    4.905724156229476    
  0.04788339389618801    0.05605170532014342    0.08279028459995867    0.13403250430835909    0.21056154552437584    
  0.29904910926482375    0.37379088441931196    0.4121340505023526    0.40863817767557203    0.37412328057959726    
  0.3244876768278156    0.2719934248261302    0.22338164173763486    0.1814647929804201    0.14684450606230245    
  0.11900252015316107    0.09702078417947697    0.07998738761369938    0.06709045024297743    0.057585754880531886    
  0.05081124063341058    0.04624129205419256    0.04350562513122095    0.042365646491033734    0.04268910671954941    
  0.04444125474711826    0.04768255625284979    0.05256753411324429    0.05935517556795672    0.06843575987171267    
  0.0803456127677649    0.09572846578537691    0.11526412058414769    0.1396499384993566    0.16963202244909228    
  0.2058991954705093    0.24866972389138428    0.29699913422422763    0.3477522801844493    0.39398212050378284    
  0.4235244182491538    0.4211445417489606    0.37727975773793504    0.2986671792148775    0.20847110292267398    
  0.1318905563842826    0.08133102935259989    0.05536596807190842    0.04788339389618801    0.05605170532014335    
  0.06381004428975225    0.09035777465953096    0.1403600299517914    0.21320339941120833    0.29525386216616345    
  0.36238701101217413    0.3944614353365179    0.3876424259950311    0.35271123155914375    0.3045728709939589    
  0.2544732383166812    0.20849802664069292    0.1691209581033747    0.13679153582560427    0.11094115748618039    
  0.0906516861663299    0.07502950224392481    0.06328866575745387    0.05471882682197859    0.04869663667617938    
  0.04473240080087186    0.042483997441560596    0.04173373819065592    0.04236564649103358    0.04435790822889647    
  0.04778043768254994    0.05279367869708988    0.05965967778865566    0.06877026074926128    0.08066493087428331    
  0.09599760066901104    0.11546903549128926    0.1398055831648232    0.16978366102754844    0.20612279013853768    
  0.24908244775483954    0.2977920041744621    0.3492641487109639    0.39682138286430946    0.4286419978323801    
  0.42960041878017596    0.38953016012459635    0.31379794397533534    0.22430528847283435    0.14620315626853012    
  0.09307597682601038    0.06483999199938431    0.05605170532014335    0.08279028459995866    0.09035777465953103    
  0.11793565447421307    0.1674340094304681    0.23505507012262172    0.3061631173752658    0.3594962578221982    
  0.37972697625745827    0.3661249097070117    0.3294376275458025    0.2827674926896875    0.2355689532785293    
  0.19283606534526204    0.15652906920205117    0.1269002684900733    0.10334179165276149    0.0849651029869041    
  0.07092061258218287    0.0604636746398631    0.052928243668282485    0.04774026186829633    0.04445593126749935    
  0.04276819286137058    0.042483997441560555    0.04350562513122077    0.04582499050739518    0.049520514045912505    
  0.05475507239197747    0.06178691995307323    0.07099922818874255    0.08292374127648494    0.09821700978561294    
  0.11759638734222395    0.1418084285414138    0.17164085352416764    0.2078238737796952    0.25066114842248505    
  0.29941708787961957    0.35144647935704326    0.40080819288426633    0.43682868978270156    0.445265936272622    
  0.41515884848042456    0.3486932733271612    0.2639751944259301    0.18488742631755564    0.12719682577672278    
  0.09423583888839605    0.08279028459995866    0.1340325043083591    0.14036002995179148    0.16743400943046813    
  0.21349375700686754    0.27116960722075817    0.3256451943991164    0.360090936914514    0.36514029563213807    
  0.3432689161304562    0.30459137938333763    0.25974230391901304    0.21596480471594837    0.1769688624221227    
  0.14413146115313763    0.11749665455116663    0.09643678001461166    0.08012216730802517    0.06777098052334175    
  0.05869442758610526    0.05228012925646905    0.04801050984390345    0.04549247074650379    0.04445593126749918    
  0.04473240080087166    0.04624129205419225    0.0489859757922065    0.05304951529747679    0.058591765417361476    
  0.06586016372403872    0.07522054671416122    0.08718765031813065    0.10241305348887615    0.12162394744841803    
  0.14557426469671125    0.17503768118250043    0.2107239516818565    0.2529649675403769    0.30118481445208933    
  0.3531884424524938    0.4040644912569641    0.4448971756391874    0.46318765347244556    0.44774542219196145    
  0.3970243608304592    0.32350124708966516    0.24779150369604505    0.1871400112971164    0.14912228205463812    
  0.1340325043083591    0.21056154552437584    0.21320339941120833    0.23505507012262158    0.27116960722075806    
  0.31206569843174403    0.3447124203279457    0.35778789210219253    0.3474295688703701    0.31810793774434587    
  0.2783857418951382    0.2361006896769401    0.19628256860621288    0.16141534199849644    0.13232775761574514    
  0.10888037803626409    0.09045331674368075    0.0763014686057104    0.06572909417759988    0.05811527172820482    
  0.05290945183378002    0.049655111837912505    0.04801050984390338    0.04774026186829614    0.04869663667617904    
  0.05081124063341021    0.05409251067682099    0.058620695260852264    0.06454535976378152    0.07209671842853715    
  0.08161666686812731    0.09359451883700808    0.10866663084479632    0.12755834200265517    0.15101449873830877    
  0.17976738933481978    0.21446922107509472    0.255447131209494    0.30226947575685176    0.35319689494783935    
  0.40440760132704784    0.4489992722611114    0.4768966731434754    0.4777992848767924    0.44735113586076836    
  0.39204368783188975    0.3272856055554411    0.269488073002251    0.22928446347072975    0.21056154552437584    
  0.29904910926482386    0.29525386216616356    0.3061631173752658    0.3256451943991164    0.3447124203279458    
  0.353912781475834    0.34719089924994906    0.324401462801458    0.2903092401502147    0.2512722993487785    
  0.21248565263940733    0.1771140566551162    0.14664649507259725    0.12147056329348194    0.10131615550162562    
  0.08560336119210848    0.07368967710155266    0.06497499038120479    0.058913624618624115    0.055022908044947534    
  0.05290945183377981    0.05228012925646891    0.05292824366828215    0.05471882682197817    0.057585754880531345    
  0.06153109434477961    0.0666212011247619    0.07298692474481618    0.08083599606927425    0.09048161705355195    
  0.10237903479406725    0.11713502696162567    0.13545604317323803    0.15806105540200177    0.18562049676398348    
  0.218698297313262    0.25757810804547165    0.30192938163474764    0.35039600965009565    0.40010259588627023    
  0.4460152938378132    0.4806792786972385    0.4957030516369433    0.4856778694357216    0.45238689470160515    
  0.4053683482788073    0.3576644873816293    0.3202345332740042    0.29904910926482386    0.3737908844193121    
  0.36238701101217413    0.35949625782219813    0.3600909369145139    0.3577878921021925    0.34719089924994895    
  0.3260603756942707    0.29588068027984843    0.2604903988309291    0.2240253733027452    0.1895970515377452    
  0.15902212699618742    0.133084857845477    0.11186817176672016    0.09503934088083588    0.08208981358891793    
  0.07248742957990065    0.06572729897986138    0.061340302684849704    0.05891362461862393    0.058115271728204486    
  0.058694427586104866    0.06046367463986252    0.06328866575745312    0.06709045024297658    0.0718482965064522    
  0.07760025547019629    0.08444859661862372    0.09257295880540023    0.10225294905772848    0.11390021626301812    
  0.12807538063460622    0.14544771169179488    0.16669934531137012    0.19243482567134915    0.22311861684711704    
  0.25896039967882095    0.2996778803547643    0.3441942824898264    0.3903412571307878    0.4345379340097904    
  0.47160991497195187    0.4954430551461723    0.5011176905901842    0.48778876360856316    0.4600883783468921    
  0.4265026476978128    0.39576990211792235    0.3737908844193121    0.41213405050235263    0.394461435336518    
  0.3797269762574582    0.3651402956321381    0.34742956887036996    0.32440146280145793    0.29588068027984843    
  0.26355442205344787    0.22999094921984803    0.19760711664588246    0.16812546261886224    0.1425060151489777    
  0.12108943709171095    0.10378691906701167    0.09027102702836172    0.08012765328864593    0.07293144402927898    
  0.06826381030396086    0.06572729897986128    0.06497499038120448    0.06572909417759938    0.06777098052334118    
  0.0709206125821821    0.07502950224392384    0.07998738761369825    0.085730884374067    0.09225246340251196    
  0.09961300537871953    0.10795470571704711    0.11751514376424434    0.12865154530324852    0.14186349802925563    
  0.15776972178695156    0.17701581128354357    0.20015833131434232    0.22758016677242784    0.2594088272498501    
  0.29536544853893404    0.3345567900491736    0.37529862697518623    0.41500246708229244    0.45014896017613165    
  0.4765980099299957    0.4906167337380101    0.4905010598599474    0.47779116423614865    0.4569661736872603    
  0.4336000379408753    0.41213405050235263    0.40863817767557215    0.38764242599503124    0.3661249097070117    
  0.3432689161304562    0.318107937744346    0.2903092401502148    0.2604903988309292    0.22999094921984803    
  0.20036637990206768    0.1729533557042314    0.14866340879615966    0.12796161112361557    0.11094345952108815    
  0.09745876268465742    0.08723704042926395    0.07996576143736854    0.07531257932669796    0.0729314440292788    
  0.07248742957990031    0.07368967710155218    0.07630146860570962    0.0801221673080244    0.08496510298690309    
  0.09065168616632881    0.09702078417947567    0.10394514218811433    0.11135205931887106    0.11924409804524347    
  0.12771110282595127    0.13693596012907194    0.14721128823658614    0.15896684527436508    0.17276600555107    
  0.1892284432180977    0.2088985104705075    0.23212577235597148    0.25898252530148014    0.28917534424518004    
  0.321927478764743    0.3558860379038377    0.38911161121305854    0.41915350856934935    0.44325427790811733    
  0.4588297481162545    0.4642589596985582    0.45963026530439455    0.44685833127331287    0.42892406544689465    
  0.40863817767557215    0.37412328057959715    0.35271123155914363    0.32943762754580236    0.3045913793833376    
  0.2783857418951382    0.2512722993487784    0.2240253733027451    0.19760711664588237    0.1729533557042313    
  0.15080752835132308    0.13164318468857394    0.11566322121337762    0.10285782750267271    0.09309197463045396    
  0.08617547869084133    0.08188624058090349    0.07996576143736832    0.08012765328864552    0.08208981358891737    
  0.08560336119210764    0.09045331674367972    0.09643678001461048    0.10334179165276007    0.1109411574861788    
  0.11900252015315925    0.1273128347860915    0.13571233229639446    0.14412455343654684    0.1525693312522191    
  0.161164052177954    0.17013517724764032    0.17984697919429488    0.19081345108386394    0.20364259536539725    
  0.21890538104741927    0.23698419194926676    0.2579615338643411    0.2815559307976243    0.30707957059163277    
  0.3334217990347544    0.3590896790641001    0.3823124960259986    0.4012018617815031    0.41399964033252395    
  0.41944684237895163    0.4171722865926433    0.4078505590729387    0.39294348977865373    0.37412328057959715    
  0.3244876768278156    0.30457287099395897    0.2827674926896875    0.259742303919013    0.23610068967694015    
  0.21248565263940727    0.1895970515377452    0.16812546261886227    0.14866340879615964    0.13164318468857397    
  0.1173159446670038    0.10577063089894759    0.09698345230242861    0.09087170319803017    0.0873201765667414    
  0.08617547869084104    0.08723704042926345    0.09027102702836097    0.09503934088083492    0.10131615550162443    
  0.10888037803626266    0.11749665455116509    0.12690026849007147    0.1367915358256024    0.14684450606230043    
  0.15673693960644652    0.16619686450443102    0.17504491574147404    0.18321520621439405    0.1907599959185559    
  0.19785835995255235    0.20483765139284496    0.2121866217673572    0.22051837240986819    0.23045803145191937    
  0.24248086935690646    0.25676560317390923    0.27311468940279365    0.29094804036094396    0.3093501520901727    
  0.32715329927827047    0.3430438081856027    0.3556824381384957    0.3638495080661058    0.3666330832753302    
  0.36362953006649984    0.3550535368035114    0.3416594190927127    0.3244876768278156    0.2719934248261302    
  0.2544732383166813    0.2355689532785293    0.21596480471594837    0.19628256860621293    0.17711405665511623    
  0.1590221269961875    0.1425060151489777    0.1279616111236155    0.1156632212133777    0.10577063089894759    
  0.0983533109459406    0.09342112637202096    0.09094721636112901    0.09087170319802991    0.09309197463045338    
  0.09745876268465663    0.1037869190670106    0.11186817176671887    0.12147056329348031    0.1323277576157433    
  0.14413146115313558    0.1565290692020489    0.16912095810337227    0.18146479298041746    0.19310475441620129    
  0.20362757270344012    0.21272301705964886    0.2202260569047178    0.22613736936933526    0.230631358563706    
  0.2340581027884459    0.23693572155127587    0.23991607020148703    0.24369884579857076    0.2488882349204477    
  0.25583041910483256    0.2644992034734372    0.27447754103452304    0.2850311190247171    0.2952298176498871    
  0.3040686815170508    0.31056748237221876    0.31386220869468084    0.3133096932292545    0.3085957369047264    
  0.29979924878955294    0.2873662192764379    0.2719934248261302    0.22338164173763486    0.20849802664069295    
  0.19283606534526201    0.17696886242212265    0.1614153419984964    0.14664649507259722    0.13308485784547708    
  0.12108943709171092    0.1109434595210881    0.10285782750267278    0.09698345230242854    0.09342112637202092    
  0.09222765650168688    0.09342112637202064    0.09698345230242802    0.10285782750267183    0.11094345952108703    
  0.12108943709170952    0.1330848578454753    0.14664649507259517    0.16141534199849403    0.17696886242212015    
  0.1928360653452593    0.20849802664068998    0.2233816417376318    0.23687728788946083    0.24839855309480763    
  0.25746937708890877    0.2638072346781501    0.2673768059945333    0.2684015359574619    0.26733589589911205    
  0.2648159009315268    0.2616025242627529    0.25850859952915306    0.2562863853774214    0.25547916084335576    
  0.2562863853774217    0.25850859952915384    0.26160252426275377    0.264815900931528    0.26733589589911366    
  0.26840153595746374    0.26737680599453556    0.26380723467815276    0.25746937708891166    0.24839855309481057    
  0.2368772878894639    0.22338164173763486    0.1814647929804201    0.1691209581033747    0.15652906920205115    
  0.14413146115313757    0.13232775761574514    0.12147056329348188    0.11186817176672019    0.10378691906701158    
  0.09745876268465738    0.09309197463045403    0.09087170319803012    0.09094721636112894    0.09342112637202067    
  0.09835331094594003    0.10577063089894673    0.11566322121337644    0.12796161112361407    0.1425060151489759    
  0.15902212699618526    0.1771140566551137    0.19628256860621    0.21596480471594529    0.23556895327852612    
  0.2544732383166779    0.27199342482612676    0.28736621927643446    0.2997992487895497    0.30859573690472325    
  0.3133096932292518    0.3138622086946785    0.3105674823722167    0.30406868151704924    0.29522981764988593    
  0.28503111902471645    0.2744775410345226    0.26449920347343725    0.2558304191048329    0.24888823492044831    
  0.24369884579857173    0.23991607020148814    0.23693572155127737    0.23405810278844763    0.23063135856370792    
  0.22613736936933748    0.22022605690472025    0.21272301705965133    0.2036275727034427    0.19310475441620392    
  0.1814647929804201    0.14684450606230237    0.1367915358256043    0.12690026849007321    0.11749665455116655    
  0.10888037803626403    0.10131615550162561    0.09503934088083589    0.09027102702836169    0.08723704042926389    
  0.08617547869084138    0.08732017656674136    0.09087170319802987    0.09698345230242801    0.10577063089894674    
  0.11731594466700256    0.13164318468857236    0.14866340879615778    0.16812546261886002    0.18959705153774256    
  0.21248565263940428    0.23610068967693681    0.2597423039190096    0.2827674926896839    0.30457287099395536    
  0.32448767682781204    0.3416594190927093    0.3550535368035081    0.3636295300664969    0.36663308327532745    
  0.3638495080661036    0.35568243813849415    0.34304380818560165    0.3271532992782697    0.30935015209017236    
  0.2909480403609439    0.27311468940279404    0.25676560317390995    0.24248086935690738    0.23045803145192062    
  0.2205183724098694    0.2121866217673589    0.20483765139284668    0.19785835995255424    0.19075999591855777    
  0.1832152062143962    0.17504491574147613    0.1661968645044333    0.1567369396064486    0.14684450606230237    
  0.11900252015316098    0.11094115748618033    0.10334179165276143    0.09643678001461163    0.09045331674368069    
  0.08560336119210848    0.08208981358891802    0.0801276532886459    0.07996576143736847    0.08188624058090353    
  0.08617547869084104    0.0930919746304534    0.10285782750267183    0.1156632212133765    0.13164318468857233    
  0.15080752835132097    0.17295335570422904    0.19760711664587968    0.2240253733027421    0.2512722993487752    
  0.27838574189513476    0.30459137938333414    0.329437627545799    0.3527112315591403    0.374123280579594    
  0.3929434897786505    0.4078505590729356    0.4171722865926406    0.4194468423789492    0.413999640332522    
  0.40120186178150175    0.38231249602599776    0.3590896790640997    0.3334217990347546    0.3070795705916332    
  0.28155593079762514    0.2579615338643421    0.23698419194926798    0.21890538104742063    0.20364259536539864    
  0.19081345108386558    0.17984697919429646    0.170135177247642    0.16116405217795568    0.15256933125222094    
  0.14412455343654865    0.1357123322963964    0.12731283478609315    0.11900252015316098    0.09702078417947703    
  0.09065168616633001    0.08496510298690403    0.08012216730802522    0.07630146860571037    0.07368967710155265    
  0.07248742957990069    0.07293144402927905    0.07531257932669785    0.07996576143736839    0.08723704042926339    
  0.09745876268465659    0.11094345952108703    0.1279616111236141    0.14866340879615772    0.17295335570422896    
  0.20036637990206502    0.2299909492198451    0.260490398830926    0.29030924015021153    0.31810793774434276    
  0.3432689161304534    0.36612490970700934    0.38764242599502896    0.4086381776755699    0.42892406544689243    
  0.4468583312733108    0.4596302653043925    0.4642589596985563    0.4588297481162531    0.4432542779081164    
  0.41915350856934896    0.3891116112130587    0.35588603790383827    0.3219274787647437    0.2891753442451812    
  0.2589825253014815    0.23212577235597293    0.20889851047050906    0.18922844321809915    0.17276600555107152    
  0.15896684527436647    0.1472112882365877    0.13693596012907333    0.12771110282595283    0.11924409804524487    
  0.11135205931887243    0.10394514218811567    0.09702078417947703    0.07998738761369924    0.07502950224392486    
  0.0709206125821828    0.06777098052334173    0.06572909417759976    0.06497499038120481    0.06572729897986138    
  0.06826381030396093    0.07293144402927877    0.0801276532886456    0.09027102702836096    0.10378691906701051    
  0.1210894370917095    0.14250601514897593    0.16812546261886    0.19760711664587965    0.22999094921984503    
  0.2635544220534447    0.29588068027984527    0.32440146280145526    0.3474295688703679    0.36514029563213696    
  0.37972697625745766    0.39446143533651773    0.41213405050235236    0.43360003794087504    0.45696617368725984    
  0.4777911642361477    0.49050105985994646    0.49061673373800935    0.4765980099299954    0.4501489601761318    
  0.415002467082293    0.3752986269751874    0.3345567900491749    0.2953654485389356    0.2594088272498518    
  0.22758016677242954    0.20015833131434402    0.1770158112835451    0.15776972178695317    0.14186349802925702    
  0.12865154530324985    0.11751514376424556    0.10795470571704846    0.09961300537872075    0.09225246340251315    
  0.08573088437406819    0.07998738761369924    0.06709045024297737    0.06328866575745391    0.06046367463986303    
  0.05869442758610521    0.05811527172820472    0.058913624618624046    0.06134030268484973    0.06572729897986118    
  0.07248742957990022    0.08208981358891741    0.09503934088083485    0.1118681717667188    0.1330848578454753    
  0.15902212699618526    0.1895970515377425    0.22402537330274191    0.26049039883092595    0.2958806802798453    
  0.32606037569426816    0.34719089924994745    0.35778789210219214    0.360090936914515    0.35949625782219996    
  0.36238701101217635    0.3737908844193141    0.39576990211792384    0.42650264769781376    0.46008837834689237    
  0.48778876360856305    0.501117690590184    0.4954430551461726    0.4716099149719526    0.4345379340097916    
  0.39034125713078943    0.3441942824898281    0.2996778803547662    0.2589603996788227    0.22311861684711892    
  0.1924348256713508    0.1666993453113717    0.14544771169179635    0.1280753806346075    0.11390021626301934    
  0.10225294905772964    0.09257295880540134    0.08444859661862467    0.07760025547019718    0.07184829650645302    
  0.06709045024297737    0.057585754880531886    0.054718826821978636    0.052928243668282436    0.05228012925646908    
  0.05290945183377995    0.05502290804494758    0.058913624618623976    0.06497499038120444    0.07368967710155211    
  0.08560336119210771    0.1013161555016244    0.12147056329348024    0.1466464950725952    0.1771140566551137    
  0.21248565263940428    0.2512722993487751    0.2903092401502116    0.32440146280145526    0.34719089924994756    
  0.35391278147583427    0.34471242032794774    0.3256451943991198    0.30616311737527    0.29525386216616756    
  0.29904910926482753    0.3202345332740072    0.3576644873816313    0.40536834827880835    0.4523868947016057    
  0.48567786943572194    0.49570305163694395    0.48067927869723964    0.44601529383781474    0.4001025958862722    
  0.35039600965009776    0.30192938163474975    0.25757810804547376    0.21869829731326398    0.1856204967639853    
  0.15806105540200333    0.13545604317323934    0.11713502696162684    0.10237903479406833    0.09048161705355284    
  0.08083599606927515    0.07298692474481697    0.0666212011247627    0.06153109434478029    0.057585754880531886    
  0.05081124063341063    0.048696636676179426    0.047740261868296295    0.0480105098439034    0.049655111837912554    
  0.05290945183377983    0.058115271728204534    0.06572909417759941    0.07630146860570962    0.09045331674367982    
  0.10888037803626267    0.13232775761574328    0.16141534199849406    0.19628256860621004    0.23610068967693687    
  0.2783857418951347    0.3181079377443429    0.347429568870368    0.3577878921021922    0.34471242032794774    
  0.31206569843174775    0.27116960722076305    0.23505507012262683    0.21320339941121294    0.21056154552437958    
  0.22928446347073275    0.26948807300225297    0.3272856055554422    0.39204368783189    0.4473511358607684    
  0.47779928487679285    0.4768966731434767    0.4489992722611133    0.4044076013270503    0.35319689494784173    
  0.30226947575685414    0.2554471312094963    0.21446922107509678    0.17976738933482161    0.15101449873831024    
  0.12755834200265648    0.10866663084479732    0.0935945188370091    0.08161666686812816    0.07209671842853795    
  0.06454535976378219    0.058620695260852826    0.054092510676821554    0.05081124063341063    0.046241292054192557    
  0.04473240080087194    0.04445593126749925    0.0454924707465038    0.04801050984390333    0.05228012925646881    
  0.05869442758610496    0.06777098052334111    0.08012216730802424    0.09643678001461047    0.117496654551165    
  0.14413146115313544    0.1769688624221201    0.21596480471594529    0.2597423039190096    0.3045913793833341    
  0.3432689161304534    0.36514029563213696    0.360090936914515    0.3256451943991198    0.271169607220763    
  0.21349375700687298    0.16743400943047293    0.14036002995179536    0.13403250430836205    0.1491222820546403    
  0.18714001129711763    0.24779150369604525    0.3235012470896646    0.3970243608304585    0.4477454221919613    
  0.4631876534724464    0.44489717563918924    0.4040644912569666    0.3531884424524963    0.3011848144520918    
  0.2529649675403793    0.21072395168185853    0.17503768118250235    0.1455742646967127    0.12162394744841934    
  0.10241305348887711    0.08718765031813173    0.07522054671416206    0.06586016372403951    0.05859176541736211    
  0.05304951529747725    0.04898597579220697    0.046241292054192557    0.043505625131220964    0.042483997441560645    
  0.04276819286137054    0.044455931267499166    0.04774026186829605    0.05292824366828215    0.06046367463986259    
  0.07092061258218217    0.08496510298690298    0.10334179165276017    0.12690026849007144    0.1565290692020489    
  0.19283606534525932    0.23556895327852612    0.2827674926896839    0.32943762754579897    0.36612490970700934    
  0.3797269762574578    0.3594962578222002    0.3061631173752699    0.2350550701226268    0.16743400943047296    
  0.1179356544742168    0.09035777465953375    0.08279028459996046    0.09423583888839708    0.12719682577672295    
  0.1848874263175547    0.2639751944259283    0.34869327332715927    0.4151588484804235    0.4452659362726223    
  0.4368286897827032    0.40080819288426883    0.3514464793570457    0.2994170878796222    0.2506611484224874    
  0.20782387377969724    0.17164085352416947    0.1418084285414153    0.11759638734222524    0.098217009785614    
  0.08292374127648576    0.07099922818874323    0.06178691995307386    0.054755072391977966    0.04952051404591302    
  0.04582499050739546    0.043505625131220964    0.042365646491033714    0.041733738190655977    0.04248399744156044    
  0.044732400800871645    0.04869663667617902    0.054718826821978074    0.06328866575745322    0.07502950224392384    
  0.09065168616632871    0.11094115748617883    0.13679153582560233    0.16912095810337224    0.20849802664068998    
  0.25447323831667784    0.3045728709939553    0.35271123155914025    0.38764242599502896    0.3944614353365178    
  0.36238701101217646    0.29525386216616767    0.21320339941121294    0.14036002995179545    0.09035777465953375    
  0.0638100442897539    0.056051705320144134    0.06483999199938444    0.0930759768260096    0.14620315626852812    
  0.22430528847283143    0.31379794397533234    0.3895301601245944    0.4296004187801755    0.42864199783238144    
  0.3968213828643119    0.34926414871096645    0.2977920041744648    0.24908244775484173    0.20612279013853974    
  0.16978366102755027    0.1398055831648245    0.11546903549129035    0.09599760066901204    0.08066493087428414    
  0.06877026074926192    0.05965967778865624    0.05279367869709021    0.04778043768255026    0.044357908228896674    
  0.042365646491033714    0.042689106719549466    0.04236564649103365    0.04350562513122077    0.0462412920541923    
  0.050811240633410165    0.057585754880531324    0.06709045024297662    0.07998738761369825    0.09702078417947557    
  0.11900252015315933    0.1468445060623004    0.1814647929804175    0.22338164173763186    0.2719934248261268    
  0.32448767682781204    0.374123280579594    0.4086381776755699    0.41213405050235247    0.37379088441931413    
  0.2990491092648276    0.21056154552437958    0.13403250430836217    0.0827902845999605    0.05605170532014417    
  0.0478833938961881    0.05536596807190772    0.08133102935259826    0.13189055638427963    0.2084711029226699    
  0.2986671792148733    0.37727975773793204    0.4211445417489596    0.4235244182491549    0.393982120503785    
  0.3477522801844517    0.2969991342242302    0.24866972389138647    0.20589919547051122    0.169632022449094    
  0.13964993849935792    0.11526412058414875    0.09572846578537779    0.08034561276776546    0.06843575987171317    
  0.05935517556795714    0.05256753411324471    0.04768255625285    0.04444125474711837    0.042689106719549466    
  0.044441254747118346    0.04435790822889656    0.04582499050739512    0.048985975792206544    0.05409251067682094    
  0.06153109434477959    0.0718482965064522    0.08573088437406697    0.10394514218811429    0.1273128347860916    
  0.15673693960644647    0.19310475441620129    0.23687728788946089    0.28736621927643446    0.34165941909270925    
  0.39294348977865046    0.4289240654468925    0.43360003794087504    0.3957699021179239    0.3202345332740072    
  0.22928446347073275    0.14912228205464031    0.09423583888839701    0.06483999199938444    0.05536596807190767    