#     DFTpy    
  CRYSTAL 
    
  PRIMVEC    
  4.456344827586211    0.0    0.0    
  0.0    4.456344827586211    0.0    
  0.0    0.0    4.456344827586211    
  PRIMCOORD    
  7    1    
  Si    0.0    0.0    0.0    
  Si    0.0    2.2281724137931005    2.2281724137931005    
  Si    1.1140862068965502    3.3422586206896603    3.3422586206896603    
  Si    2.2281724137931005    0.0    2.2281724137931005    
  Si    3.3422586206896603    1.1140862068965502    3.3422586206896603    
  Si    2.2281724137931005    2.2281724137931005    0.0    
  Si    3.3422586206896603    3.3422586206896603    1.1140862068965502    
  BEGIN_BLOCK_DATAGRID_3D    
  3d_datagrid_density    
  BEGIN_DATAGRID_3D#0    
  49    49    49    
  0.0    0.0    0.0    
  4.456344844208462    0.0    0.0    
  0.0    4.456344844208462    0.0    
  0.0    0.0    4.456344844208462    
  0.049347582054715886    0.05604404921089118    0.07880803983978255    0.12277198908087937    0.19106971197584746    
  0.27783252374736894    0.3654526889681394    0.4315104039750052    0.46108593969498285    0.45356659721870146    
  0.4192487829787956    0.37120779416403216    0.31963477654797545    0.27056925565104284    0.22694046588416067    
  0.18980491106066158    0.15915455323028074    0.1344510007889195    0.11499903694352277    0.10013234604708805    
  0.08924492346541348    0.08178392428447419    0.07727644360637816    0.07537386642101837    0.07587524587578098    
  0.07872730813935093    0.08402464993977332    0.09202055150973018    0.10312928476737482    0.11789302988709319    
  0.13691919535215846    0.16083350120418038    0.19026982151353136    0.22582380212039052    0.26785267272345725    
  0.31608734319185566    0.3690755965511928    0.4233280685434722    0.47204236169489483    0.504166259469582    
  0.506066672769378    0.4677864128619034    0.39144935389472957    0.2941260449528274    0.1999323477946073    
  0.12696939587552963    0.08055440293487638    0.056644171595752545    0.049347582054715886    0.05604404921089122    
  0.06199432964817563    0.0840338670990729    0.12636366348149505    0.1910643248700343    0.2718123616494216    
  0.351848439622392    0.41070251753113196    0.4353434091422266    0.425927493669213    0.3923205733782948    
  0.3466207791021772    0.2981235565354267    0.2522883439199437    0.2117346749420942    0.1773737348001215    
  0.1491455188331104    0.12651281673731862    0.10880732716598229    0.0953985077533271    0.08571857704821598    
  0.07925315544378257    0.07556455802175116    0.07433206968285976    0.07537386642101848    0.07864880899520567    
  0.08425970426698406    0.09246702408159692    0.10369427171900314    0.11849803088931148    0.13750632655356998    
  0.16136898183779122    0.19074403877748547    0.22625331650352265    0.2682904264846555    0.3166413873674414    
  0.3699358082453512    0.4248113043387002    0.47466339701470994    0.5086816114353183    0.5133420728635947    
  0.47836069452410124    0.4049616590369583    0.3091285064992736    0.21446029145064838    0.13951321022752147    
  0.09063718741781811    0.06466527600253873    0.05604404921089122    0.07880803983978249    0.08403386709907296    
  0.10640673888429307    0.14829340946302255    0.20944416668629287    0.28209875119104844    0.3504581771320372    
  0.39725795730323754    0.412860853822686    0.3989959636012156    0.3650139887978006    0.3215078402478879    
  0.27637168384839067    0.23417895547892872    0.1971007140704737    0.16585461931141976    0.1403231420121389    
  0.11998349898934227    0.10421080163371328    0.09242126175995273    0.08409107063063641    0.07874979499171905    
  0.07600267344930507    0.07556455802175124    0.07727644360637839    0.08110689872873325    0.08715870297032396    
  0.09568740952849714    0.10711300564616259    0.12199702735525102    0.14098404031394987    0.1647468114820405    
  0.19396407622681783    0.22927652266294554    0.2711094938169051    0.31931595019998277    0.37266356587311245    
  0.4280812888171381    0.479532358888773    0.5170498394049904    0.5278040976048444    0.5011650181769912    
  0.43633452015764074    0.34630774119173896    0.252709056003385    0.17457656296532845    0.12062012271290481    
  0.09010998665651332    0.07880803983978249    0.12277198908087947    0.12636366348149505    0.1482934094630227    
  0.18841159601570825    0.2435331171865244    0.3044486317474446    0.35702009720494393    0.3881578141198736    
  0.3922475964304147    0.37264065891227466    0.33784488656547057    0.2965630088123084    0.25501829523466585    
  0.21675460385874804    0.18342837082936808    0.1555377594175005    0.1329050408407274    0.11503171201454003    
  0.10134825386372029    0.09132554129745254    0.08448787787982925    0.08041209466968292    0.07874979499171926    
  0.07925315544378286    0.08178392428447454    0.08631395187667804    0.09293598957462018    0.10188820440453354    
  0.11357369028604497    0.12854714249584537    0.14746153726141767    0.17100712624135558    0.19987672561934122    
  0.23472072171947822    0.27599030962720217    0.32361440454587465    0.3765397814670724    0.4320976093111814    
  0.48507405929703096    0.526813988148196    0.5457858643971666    0.531393612857978    0.4804607327513821    
  0.4017341105504154    0.3132848183343288    0.23372830997855262    0.17440475287585344    0.13806149342632124    
  0.12277198908087947    0.1910697119758476    0.19106432487003427    0.20944416668629287    0.2435331171865245    
  0.2876570694257431    0.33216540257107846    0.3655942465495055    0.3793790958217315    0.37153490486637764    
  0.34637399019980836    0.31109082445212305    0.27232036157053713    0.234602126454018    0.20047201337699352    
  0.17108059238926934    0.1467078395211569    0.12712124043276085    0.11185635321842344    0.10040777683193498    
  0.09230587182153797    0.0871246625763744    0.0844878778798294    0.08409107063063678    0.08571857704821649    
  0.0892449234654142    0.09463514345777145    0.1019602670280951    0.11142767036542399    0.12340852796526586    
  0.13843558505202688    0.15715744377137944    0.18027193762927532    0.20847635602065404    0.2424196384510781    
  0.2825708461020762    0.32893963306144547    0.38067507998844363    0.4355563063027049    0.48929204599903436    
  0.5347805564320692    0.5622768096678052    0.5619148417608169    0.5286779042346356    0.46685975739456675    
  0.3897804906699075    0.3139969041848569    0.25238836752102334    0.2111046565267111    0.1910697119758476    
  0.2778325237473689    0.27181236164942146    0.28209875119104844    0.3044486317474445    0.33216540257107835    
  0.3566650581864447    0.36984475747546924    0.3671470761357771    0.3490345440911361    0.31980833418579246    
  0.28498983176833553    0.24923189781525082    0.21559490551128477    0.18575045288595682    0.16040845115174118    
  0.13965767440523177    0.12322721022242124    0.11069836747423732    0.10163596569847215    0.09563119691628674    
  0.09230587182153817    0.09132554129745299    0.0924212617599532    0.09539850775332792    0.10013234604708894    
  0.10656806186648755    0.11474063659154976    0.12480998929609877    0.13709648498522226    0.15209166230213397    
  0.17042303313529591    0.1927834153641589    0.21986427557389226    0.25230217077543665    0.290574646384875    
  0.3347717490591176    0.3842520627439625    0.4372337861437981    0.490302956207918    0.5378905845053399    
  0.572247879542907    0.584926772997134    0.5701782752301345    0.5287223555269343    0.4688968175820704    
  0.40365854233892196    0.34542157700826154    0.30235627741484006    0.2778325237473689    0.3654526889681394    
  0.351848439622392    0.35045817713203725    0.357020097204944    0.36559424654950545    0.3698447574754693    
  0.3649428020411729    0.3491458568967374    0.32397500077991626    0.292942168342807    0.2598518644712159    
  0.22770049007209814    0.19840025807394432    0.17295813757240094    0.15173708715855136    0.13467936332412736    
  0.12150045803779018    0.11183956562481581    0.1053347037483105    0.10163596569847257    0.10040777683193547    
  0.10134825386372093    0.10421080163371424    0.10880732716598329    0.11499903694352395    0.12269641611757859    
  0.13188022550502382    0.1426407578401909    0.15522321647934423    0.170054539054391    0.18772167003189458    
  0.20889864291101595    0.23426224816949204    0.2644294058902723    0.2998792606877969    0.34077958648068835    
  0.3866963161499648    0.436249722360624    0.4867710969339088    0.5339972218389698    0.5720443495096761    
  0.5942320344771052    0.5951698287573363    0.5734738787198753    0.5333412501868172    0.48351189130697386    
  0.43407504061251356    0.3931948855318719    0.3654526889681394    0.4315104039750053    0.41070251753113196    
  0.39725795730323754    0.3881578141198736    0.37937909582173146    0.3671470761357773    0.34914585689673744    
  0.32513970730994535    0.2966857302695102    0.2662113374238762    0.23608261043654027    0.20808948086643236    
  0.1833458592958868    0.1623909340893718    0.1453391003605677    0.13203815613990022    0.12221665860294423    
  0.11558044269192894    0.11183956562481615    0.11069836747423789    0.11185635321842415    0.11503171201454092    
  0.11998349898934349    0.12651281673731996    0.13445100078892086    0.1436562089197038    0.15403211696644167    
  0.16557135794392758    0.1784151681203902    0.1929007240527415    0.20955485067859547    0.22901991418381348    
  0.2519527730982546    0.278951373088942    0.3104985964226563    0.34684118287712584    0.3877484287272617    
  0.4322033500293773    0.4781366747974741    0.5222822591239583    0.5602484541833824    0.5870343923244126    
  0.5982297805511901    0.5917060850737322    0.5689366914610001    0.5349424322532003    0.4966712348891955    
  0.4607088190742371    0.4315104039750053    0.46108593969498307    0.4353434091422266    0.41286085382268595    
  0.3922475964304146    0.37153490486637764    0.3490345440911361    0.32397500077991614    0.2966857302695102    
  0.2683205034318771    0.2403557951220519    0.21415398646497275    0.19072963735292406    0.17068891289348784    
  0.15426638717799568    0.1414188027407143    0.13195056878596423    0.12562516078520483    0.12221665860294453    
  0.12150045803779072    0.12322721022242213    0.12712124043276188    0.13290504084072868    0.14032314201214052    
  0.14914551883311214    0.1591545532302826    0.17013450874362737    0.18188405998743637    0.19426585608755084    
  0.2072872458897636    0.22117322129373715    0.23637586077303216    0.25349880751985154    0.2731823058094911    
  0.2960199638459574    0.3225170827855722    0.35301098081982046    0.3874717249896861    0.4252130937979585    
  0.4646525595910654    0.5032517712931053    0.5376871424125759    0.5642705860687789    0.5796595187025532    
  0.5817978496942172    0.570759360786928    0.5489807464797187    0.5205937147410031    0.4901085531465491    
  0.46108593969498307    0.45356659721870135    0.4259274936692129    0.3989959636012154    0.3726406589122746    
  0.34637399019980825    0.3198083341857925    0.292942168342807    0.2662113374238761    0.2403557951220519    
  0.21621538120565018    0.1945499491756545    0.1759202118837476    0.16063090986798564    0.14873871250853662    
  0.1401232926060458    0.13459029753095061    0.13195056878596456    0.13203815613990075    0.1346793633241283    
  0.13965767440523308    0.14670783952115826    0.1555377594175022    0.16585461931142156    0.1773737348001236    
  0.1898049110606638    0.2028315528727568    0.21611483135807202    0.22935321169928777    0.24239224488155298    
  0.2553282410790683    0.26853297977294516    0.2825762739604058    0.2981012449472175    0.31573349946782214    
  0.3360430434753105    0.3594848046492735    0.38622785315752295    0.4158852961691641    0.44728490105484237    
  0.47844039688383283    0.5067727514313011    0.5295078880033921    0.5441552473094906    0.549011989337338    
  0.5436122503958524    0.5289403925219427    0.5072141062565807    0.48123412345121047    0.45356659721870135    
  0.41924878297879553    0.3923205733782948    0.3650139887978005    0.33784488656547057    0.31109082445212294    
  0.2849898317683356    0.2598518644712158    0.23608261043654027    0.21415398646497275    0.19454994917565457    
  0.1777002045946392    0.16391283417522098    0.15332915651681986    0.14592741420666755    0.14157877729202864    
  0.14012329260604622    0.141418802740715    0.14533910036056877    0.1517370871585527    0.16040845115174288    
  0.1710805923892713    0.18342837082937027    0.19710071407047608    0.21173467494209688    0.22694046588416342    
  0.24226906139501425    0.2572091134830918    0.27126159325226384    0.2840855520551736    0.29563672807123204    
  0.3062083007335128    0.3163536072347042    0.3267574965346905    0.3381394393201448    0.3512035822203603    
  0.3665690892349518    0.3846057106174894    0.40518763245477274    0.4274903663501927    0.4499792979336527    
  0.4706352909126214    0.4873203119584616    0.4981393231247309    0.5017304559083915    0.49749252642719133    
  0.4857279543387034    0.4676006721617483    0.44483602173407544    0.41924878297879553    0.37120779416403216    
  0.34662077910217715    0.3215078402478878    0.2965630088123084    0.2723203615705371    0.24923189781525087    
  0.22770049007209806    0.20808948086643228    0.19072963735292406    0.17592021188374762    0.16391283417522093    
  0.15488158454366743    0.14889981192106502    0.1459441989668827    0.14592741420666794    0.14873871250853746    
  0.15426638717799682    0.16239093408937327    0.17295813757240278    0.1857504528859589    0.20047201337699586    
  0.2167546038587507    0.23417895547893164    0.2522883439199468    0.270569255651046    0.28840874962165314    
  0.3050889644321036    0.31988260914698513    0.3322389689006307    0.3419602046172557    0.3492617225403609    
  0.3547018374795045    0.35905733757087516    0.36322095145271033    0.36812160224883883    0.3746101590077778    
  0.38327215014123756    0.3942057939803134    0.40687154678387505    0.4201157558458983    0.43238327941900945    
  0.44202403720109334    0.4475660781778072    0.4479030884494934    0.4424319958305995    0.4311643352940601    
  0.41474883423411585    0.39432168189748235    0.37120779416403216    0.3196347765479755    0.2981235565354268    
  0.2763716838483907    0.25501829523466585    0.234602126454018    0.2155949055112849    0.19840025807394426    
  0.18334585929588684    0.17068891289348792    0.16063090986798575    0.15332915651681991    0.1488998119210651    
  0.14741515456492885    0.1488998119210654    0.15332915651682075    0.16063090986798698    0.17068891289348945    
  0.18334585929588876    0.1984002580739466    0.21559490551128735    0.23460212645402087    0.255018295234669    
  0.276371683848394    0.2981235565354303    0.3196347765479791    0.3401105750471924    0.35859679479624507    
  0.37410237526439016    0.3858314265341777    0.393404245632387    0.39694692692941486    0.3970381975222274    
  0.39459555685489095    0.3907645168706486    0.38679315998954    0.38384494678807646    0.3827596775397314    
  0.3838449467880761    0.3867931599895392    0.39076451687064745    0.3945955568548893    0.3970381975222252    
  0.3969469269294123    0.39340424563238413    0.3858314265341744    0.3741023752643866    0.3585967947962414    
  0.3401105750471887    0.3196347765479755    0.2705692556510428    0.2522883439199437    0.23417895547892872    
  0.21675460385874804    0.20047201337699352    0.18575045288595682    0.17295813757240094    0.16239093408937183    
  0.15426638717799568    0.14873871250853668    0.14592741420666755    0.14594419896688277    0.14889981192106538    
  0.15488158454366815    0.16391283417522218    0.17592021188374923    0.19072963735292614    0.20808948086643458    
  0.22770049007210083    0.2492318978152537    0.27232036157054035    0.2965630088123117    0.32150784024789136    
  0.34662077910218086    0.3712077941640358    0.394321681897486    0.4147488342341195    0.43116433529406356    
  0.4424319958306028    0.4479030884494963    0.44756607817780963    0.44202403720109523    0.43238327941901067    
  0.42011575584589905    0.4068715467838755    0.3942057939803133    0.38327215014123706    0.37461015900777683    
  0.36812160224883766    0.36322095145270883    0.35905733757087316    0.3547018374795022    0.3492617225403584    
  0.3419602046172529    0.3322389689006275    0.31988260914698186    0.30508896443210026    0.2884087496216498    
  0.2705692556510428    0.2269404658841607    0.21173467494209422    0.1971007140704736    0.18342837082936808    
  0.17108059238926923    0.1604084511517413    0.15173708715855128    0.14533910036056774    0.14141880274071425    
  0.14012329260604592    0.14157877729202864    0.145927414206668    0.1533291565168207    0.16391283417522212    
  0.17770020459464084    0.19454994917565654    0.21415398646497516    0.23608261043654294    0.2598518644712189    
  0.28498983176833875    0.31109082445212644    0.33784488656547407    0.365013988797804    0.3923205733782982    
  0.41924878297879914    0.444836021734079    0.46760067216175183    0.4857279543387067    0.4974925264271942    
  0.501730455908394    0.49813932312473297    0.4873203119584631    0.4706352909126223    0.4499792979336531    
  0.42749036635019244    0.4051876324547722    0.38460571061748844    0.3665690892349505    0.3512035822203587    
  0.3381394393201429    0.3267574965346885    0.31635360723470174    0.3062083007335101    0.2956367280712293    
  0.2840855520551706    0.2712615932522609    0.2572091134830888    0.24226906139501134    0.2269404658841607    
  0.1898049110606615    0.17737373480012147    0.16585461931141968    0.15553775941750034    0.14670783952115668    
  0.13965767440523175    0.13467936332412728    0.13203815613990022    0.13195056878596412    0.1345902975309507    
  0.14012329260604617    0.14873871250853746    0.16063090986798684    0.17592021188374923    0.19454994917565652    
  0.21621538120565262    0.24035579512205466    0.2662113374238791    0.2929421683428101    0.3198083341857955    
  0.34637399019981124    0.3726406589122773    0.3989959636012182    0.42592749366921545    0.4535665972187038    
  0.4812341234512131    0.5072141062565833    0.5289403925219451    0.5436122503958547    0.54901198933734    
  0.544155247309492    0.5295078880033932    0.5067727514313014    0.47844039688383255    0.44728490105484175    
  0.41588529616916303    0.3862278531575216    0.3594848046492719    0.3360430434753086    0.3157334994678201    
  0.2981012449472153    0.28257627396040336    0.26853297977294277    0.25532824107906577    0.24239224488155034    
  0.22935321169928516    0.2161148313580695    0.20283155287275448    0.1898049110606615    0.15915455323028074    
  0.14914551883311034    0.14032314201213886    0.1329050408407273    0.12712124043276068    0.12322721022242128    
  0.12150045803779008    0.12221665860294419    0.12562516078520483    0.1319505687859645    0.14141880274071497    
  0.15426638717799687    0.17068891289348936    0.19072963735292608    0.21415398646497516    0.24035579512205466    
  0.26832050343188024    0.29668573026951317    0.3239750007799192    0.34903454409113854    0.37153490486637963    
  0.39224759643041623    0.412860853822687    0.4353434091422274    0.4610859396949838    0.49010855314655005    
  0.5205937147410042    0.5489807464797202    0.5707593607869297    0.5817978496942184    0.5796595187025539    
  0.5642705860687792    0.5376871424125756    0.5032517712931046    0.46465255959106405    0.4252130937979569    
  0.3874717249896841    0.35301098081981847    0.32251708278557    0.29601996384595514    0.27318230580948877    
  0.25349880751984905    0.23637586077302986    0.22117322129373476    0.2072872458897613    0.19426585608754854    
  0.1818840599874343    0.17013450874362532    0.15915455323028074    0.13445100078891942    0.12651281673731862    
  0.11998349898934231    0.11503171201453993    0.11185635321842342    0.11069836747423742    0.11183956562481581    
  0.11558044269192898    0.12221665860294452    0.13203815613990091    0.14533910036056877    0.16239093408937344    
  0.18334585929588879    0.20808948086643464    0.23608261043654294    0.26621133742387915    0.2966857302695133    
  0.32513970730994807    0.3491458568967397    0.36714707613577857    0.37937909582173185    0.38815781411987327    
  0.39725795730323643    0.41070251753113046    0.4315104039750039    0.4607088190742363    0.4966712348891951    
  0.5349424322532003    0.5689366914610005    0.5917060850737328    0.5982297805511902    0.5870343923244123    
  0.5602484541833815    0.5222822591239569    0.47813667479747224    0.4322033500293753    0.38774842872725945    
  0.3468411828771235    0.31049859642265404    0.2789513730889399    0.2519527730982523    0.22901991418381124    
  0.20955485067859322    0.1929007240527395    0.17841516812038816    0.1655713579439256    0.15403211696643984    
  0.14365620891970218    0.13445100078891942    0.1149990369435229    0.10880732716598226    0.10421080163371342    
  0.10134825386372036    0.10040777683193491    0.1016359656984723    0.10533470374831044    0.11183956562481623    
  0.12150045803779067    0.13467936332412836    0.15173708715855277    0.1729581375724028    0.19840025807394654    
  0.22770049007210078    0.25985186447121894    0.2929421683428101    0.32397500077991914    0.34914585689673966    
  0.3649428020411741    0.36984475747546897    0.3655942465495039    0.3570200972049413    0.35045817713203403    
  0.3518484396223886    0.3654526889681363    0.39319488553186926    0.4340750406125117    0.48351189130697275    
  0.5333412501868169    0.5734738787198753    0.5951698287573359    0.5942320344771045    0.5720443495096746    
  0.5339972218389679    0.48677109693390663    0.4362497223606215    0.3866963161499622    0.3407795864806858    
  0.2998792606877944    0.2644294058902699    0.2342622481694898    0.2088986429110137    0.1877216700318926    
  0.17005453905438925    0.15522321647934256    0.14264075784018931    0.13188022550502235    0.12269641611757733    
  0.1149990369435229    0.10013234604708804    0.09539850775332703    0.09242126175995273    0.09132554129745242    
  0.09230587182153784    0.09563119691628678    0.10163596569847257    0.11069836747423793    0.12322721022242207    
  0.13965767440523302    0.16040845115174288    0.18575045288595898    0.21559490551128735    0.2492318978152537    
  0.28498983176833864    0.3198083341857955    0.34903454409113854    0.36714707613577846    0.3698447574754691    
  0.35666505818644256    0.33216540257107496    0.30444863174744025    0.2820987511910439    0.2718123616494169    
  0.2778325237473649    0.30235627741483684    0.3454215770082593    0.40365854233892057    0.4688968175820698    
  0.5287223555269341    0.5701782752301343    0.5849267729971332    0.5722478795429055    0.5378905845053379    
  0.4903029562079155    0.4372337861437953    0.3842520627439597    0.33477174905911483    0.29057464638487235    
  0.2523021707754343    0.21986427557389002    0.1927834153641568    0.17042303313529403    0.15209166230213228    
  0.13709648498522076    0.12480998929609735    0.11474063659154848    0.1065680618664867    0.10013234604708804    
  0.08924492346541361    0.08571857704821598    0.08409107063063646    0.08448787787982925    0.08712466257637444    
  0.09230587182153825    0.10040777683193547    0.11185635321842419    0.12712124043276185    0.14670783952115832    
  0.17108059238927123    0.2004720133769959    0.23460212645402087    0.2723203615705403    0.3110908244521264    
  0.34637399019981124    0.3715349048663797    0.3793790958217319    0.36559424654950395    0.33216540257107485    
  0.2876570694257384    0.2435331171865193    0.20944416668628799    0.19106432487002997    0.19106971197584396    
  0.21110465652670826    0.25238836752102145    0.3139969041848558    0.3897804906699073    0.46685975739456714    
  0.5286779042346356    0.5619148417608164    0.5622768096678037    0.534780556432067    0.48929204599903153    
  0.4355563063027019    0.38067507998844063    0.32893963306144264    0.28257084610207356    0.2424196384510758    
  0.20847635602065187    0.18027193762927343    0.15715744377137783    0.13843558505202533    0.12340852796526457    
  0.11142767036542277    0.1019602670280941    0.09463514345777074    0.08924492346541361    0.08178392428447409    
  0.07925315544378256    0.0787497949917191    0.08041209466968285    0.08448787787982939    0.09132554129745302    
  0.10134825386372089    0.11503171201454086    0.13290504084072874    0.15553775941750228    0.18342837082937027    
  0.2167546038587507    0.25501829523466896    0.29656300881231173    0.33784488656547396    0.3726406589122773    
  0.39224759643041623    0.3881578141198732    0.3570200972049414    0.3044486317474402    0.24353311718651935    
  0.18841159601570337    0.14829340946301836    0.12636366348149175    0.12277198908087679    0.13806149342631938    
  0.1744047528758525    0.23372830997855243    0.3132848183343298    0.40173411055041675    0.48046073275138296    
  0.5313936128579781    0.5457858643971655    0.5268139881481941    0.4850740592970281    0.43209760931117824    
  0.3765397814670692    0.3236144045458717    0.27599030962719967    0.23472072171947586    0.19987672561933928    
  0.17100712624135386    0.14746153726141603    0.1285471424958441    0.11357369028604396    0.10188820440453256    
  0.09293598957461946    0.08631395187667744    0.08178392428447409    0.07727644360637827    0.07556455802175113    
  0.07600267344930511    0.07874979499171922    0.08409107063063674    0.09242126175995338    0.10421080163371414    
  0.1199834989893436    0.14032314201214055    0.1658546193114217    0.19710071407047616    0.23417895547893172    
  0.276371683848394    0.32150784024789136    0.365013988797804    0.3989959636012182    0.41286085382268717    
  0.39725795730323654    0.35045817713203403    0.2820987511910438    0.209444166686288    0.1482934094630184    
  0.10640673888428984    0.08403386709907065    0.07880803983978094    0.09010998665651238    0.12062012271290475    
  0.17457656296532928    0.252709056003387    0.34630774119174146    0.4363345201576428    0.5011650181769922    
  0.527804097604844    0.5170498394049886    0.47953235888877027    0.4280812888171351    0.3726635658731095    
  0.3193159501999801    0.2711094938169025    0.2292765226629433    0.19396407622681597    0.1647468114820388    
  0.14098404031394837    0.12199702735524985    0.10711300564616166    0.09568740952849646    0.0871587029703234    
  0.08110689872873286    0.07727644360637827    0.07537386642101833    0.07433206968285976    0.0755645580217513    
  0.07925315544378281    0.08571857704821643    0.0953985077533279    0.10880732716598322    0.12651281673732007    
  0.1491455188331121    0.1773737348001236    0.2117346749420968    0.2522883439199468    0.29812355653543027    
  0.3466207791021809    0.3923205733782982    0.42592749366921545    0.4353434091422275    0.4107025175311305    
  0.3518484396223886    0.271812361649417    0.19106432487002994    0.12636366348149167    0.08403386709907071    
  0.061994329648174244    0.05604404921089046    0.06466527600253869    0.09063718741781897    0.1395132102275233    
  0.21446029145065146    0.3091285064992773    0.4049616590369615    0.4783606945241033    0.5133420728635947    
  0.5086816114353169    0.4746633970147075    0.4248113043386974    0.36993580824534833    0.3166413873674387    
  0.2682904264846532    0.2262533165035205    0.1907440387774839    0.1613689818377897    0.1375063265535688    
  0.11849803088931056    0.10369427171900247    0.09246702408159634    0.08425970426698355    0.07864880899520556    
  0.07537386642101833    0.07587524587578104    0.07537386642101858    0.07727644360637853    0.08178392428447462    
  0.08924492346541413    0.10013234604708905    0.11499903694352397    0.13445100078892094    0.1591545532302827    
  0.18980491106066383    0.2269404658841635    0.27056925565104617    0.3196347765479791    0.37120779416403593    
  0.41924878297879914    0.453566597218704    0.4610859396949838    0.4315104039750039    0.3654526889681364    
  0.2778325237473649    0.19106971197584394    0.12277198908087686    0.07880803983978092    0.05604404921089043    
  0.04934758205471575    0.05664417159575313    0.080554402934878    0.12696939587553244    0.1999323477946116    
  0.2941260449528324    0.391449353894734    0.4677864128619062    0.5060666727693788    0.504166259469581    
  0.4720423616948926    0.4233280685434695    0.3690755965511901    0.31608734319185305    0.26785267272345503    
  0.22582380212038855    0.19026982151352978    0.16083350120417908    0.1369191953521574    0.11789302988709238    
  0.10312928476737424    0.09202055150972972    0.084024649939773    0.07872730813935082    0.07587524587578104    
  0.07872730813935086    0.07864880899520568    0.08110689872873328    0.08631395187667804    0.09463514345777142    
  0.10656806186648765    0.1226964161175786    0.1436562089197038    0.17013450874362732    0.20283155287275687    
  0.2422690613950142    0.28840874962165314    0.34011057504719233    0.39432168189748595    0.444836021734079    
  0.4812341234512131    0.49010855314655005    0.46070881907423616    0.3931948855318694    0.30235627741483684    
  0.21110465652670826    0.13806149342631935    0.0901099866565124    0.06466527600253866    0.05664417159575316    
  0.06376005420848394    0.0882923973856802    0.13558138965088148    0.2088835915390998    0.3022063258236787    