
     Program PWSCF v.6.5 starts on 30Mar2023 at 15: 8:30 

     This program is part of the open-source Quantum ESPRESSO suite
     for quantum simulation of materials; please cite
         "P. Giannozzi et al., J. Phys.:Condens. Matter 21 395502 (2009);
         "P. Giannozzi et al., J. Phys.:Condens. Matter 29 465901 (2017);
          URL http://www.quantum-espresso.org", 
     in publications or presentations arising from this work. More details at
     http://www.quantum-espresso.org/quote

     Serial version
     Reading input from /home/valeria/Documents/DFTPY/Fitting_densities/Si7-CD/DATA2/Si19.in
Warning: card &IONS ignored
Warning: card / ignored
Warning: card &CELL ignored
Warning: card / ignored
Warning: card &FCP ignored
Warning: card / ignored
Warning: card &RISM ignored
Warning: card / ignored

     Current dimensions of program PWSCF are:
     Max number of different atomic species (ntypx) = 10
     Max number of k-points (npk) =  40000
     Max angular momentum in pseudopotentials (lmaxx) =  3

     WARNING: check_stop already initialized
     Message from routine setup:
     using ibrav=0 with symmetry is DISCOURAGED, use correct ibrav instead

     G-vector sticks info
     --------------------
     sticks:   dense  smooth     PW     G-vecs:    dense   smooth      PW
     Sum        2869    2869    793               115313   115313   16879



     bravais-lattice index     =            0
     lattice parameter (alat)  =      12.2427  a.u.
     unit-cell volume          =    1834.9760 (a.u.)^3
     number of atoms/cell      =            7
     number of atomic types    =            1
     number of electrons       =        28.00
     number of Kohn-Sham states=           18
     kinetic-energy cutoff     =      60.0000  Ry
     charge density cutoff     =     240.0000  Ry
     convergence threshold     =      1.0E-06
     mixing beta               =       0.7000
     number of iterations used =            8  plain     mixing
     Exchange-correlation= LDA
                           (   1   1   0   0   0   0   0)

     celldm(1)=  12.242688  celldm(2)=   0.000000  celldm(3)=   0.000000
     celldm(4)=   0.000000  celldm(5)=   0.000000  celldm(6)=   0.000000

     crystal axes: (cart. coord. in units of alat)
               a(1) = (   1.000000   0.000000   0.000000 )  
               a(2) = (   0.000000   1.000000   0.000000 )  
               a(3) = (   0.000000   0.000000   1.000000 )  

     reciprocal axes: (cart. coord. in units 2 pi/alat)
               b(1) = (  1.000000  0.000000  0.000000 )  
               b(2) = (  0.000000  1.000000  0.000000 )  
               b(3) = (  0.000000  0.000000  1.000000 )  


     PseudoPot. # 1 for Si read from file:
     /home/valeria/Desktop/programs/dftpy/examples/ofpp/EAC/upf/blps/si.lda.upf
     MD5 check sum: 946fc5a8d23174f015515f8139e499ed
     Pseudo is Norm-conserving, Zval =  4.0
     DFTpy
     Using radial grid of 1601 points,  1 beta functions with: 
                l(1) =   0

     atomic species   valence    mass     pseudopotential
        Si             4.00    28.08000     Si( 1.00)

     24 Sym. Ops. (no inversion) found (18 have fractional translation)



   Cartesian axes

     site n.     atom                  positions (alat units)
         1           Si  tau(   1) = (   0.0000000   0.0000000   0.0000000  )
         2           Si  tau(   2) = (   0.0000000   0.5000000   0.5000000  )
         3           Si  tau(   3) = (   0.2500000   0.7500000   0.7500000  )
         4           Si  tau(   4) = (   0.5000000   0.0000000   0.5000000  )
         5           Si  tau(   5) = (   0.7500000   0.2500000   0.7500000  )
         6           Si  tau(   6) = (   0.5000000   0.5000000   0.0000000  )
         7           Si  tau(   7) = (   0.7500000   0.7500000   0.2500000  )

     number of k points=   220  Gaussian smearing, width (Ry)=  0.0050

     Number of k-points >= 100: set verbosity='high' to print them.

     Dense  grid:   115313 G-vectors     FFT dimensions: (  64,  64,  64)

     Estimated max dynamical RAM per process >     973.53 MB

     Initial potential from superposition of free atoms

     starting charge   27.99552, renormalised to   28.00000
     Starting wfcs are random

     total cpu time spent up to now is       82.7 secs

     Self-consistent Calculation

     iteration #  1     ecut=    60.00 Ry     beta= 0.70
     Davidson diagonalization with overlap
     ethr =  1.00E-02,  avg # of iterations =  7.8

     Threshold (ethr) on eigenvalues was too large:
     Diagonalizing with lowered threshold

     Davidson diagonalization with overlap
     ethr =  3.17E-04,  avg # of iterations =  2.2

     total cpu time spent up to now is     1020.6 secs

     total energy              =     -55.68228194 Ry
     Harris-Foulkes estimate   =     -55.71830993 Ry
     estimated scf accuracy    <       0.08908918 Ry

     iteration #  2     ecut=    60.00 Ry     beta= 0.70
     Davidson diagonalization with overlap
     ethr =  3.18E-04,  avg # of iterations =  2.1

     total cpu time spent up to now is     1272.8 secs

     total energy              =     -55.68824666 Ry
     Harris-Foulkes estimate   =     -55.71165523 Ry
     estimated scf accuracy    <       0.04386275 Ry

     iteration #  3     ecut=    60.00 Ry     beta= 0.70
     Davidson diagonalization with overlap
     ethr =  1.57E-04,  avg # of iterations =  2.1

     total cpu time spent up to now is     1521.0 secs

     total energy              =     -55.69926541 Ry
     Harris-Foulkes estimate   =     -55.70082746 Ry
     estimated scf accuracy    <       0.00391386 Ry

     iteration #  4     ecut=    60.00 Ry     beta= 0.70
     Davidson diagonalization with overlap
     ethr =  1.40E-05,  avg # of iterations =  4.8

     total cpu time spent up to now is     1781.6 secs

     total energy              =     -55.69998892 Ry
     Harris-Foulkes estimate   =     -55.70010762 Ry
     estimated scf accuracy    <       0.00026829 Ry

     iteration #  5     ecut=    60.00 Ry     beta= 0.70
     Davidson diagonalization with overlap
     ethr =  9.58E-07,  avg # of iterations =  5.8

     total cpu time spent up to now is     2082.0 secs

     total energy              =     -55.70003391 Ry
     Harris-Foulkes estimate   =     -55.70004132 Ry
     estimated scf accuracy    <       0.00001401 Ry

     iteration #  6     ecut=    60.00 Ry     beta= 0.70
     Davidson diagonalization with overlap
     ethr =  5.00E-08,  avg # of iterations =  3.3

     total cpu time spent up to now is     2399.1 secs

     total energy              =     -55.70004023 Ry
     Harris-Foulkes estimate   =     -55.70004218 Ry
     estimated scf accuracy    <       0.00000411 Ry

     iteration #  7     ecut=    60.00 Ry     beta= 0.70
     Davidson diagonalization with overlap
     ethr =  1.47E-08,  avg # of iterations =  2.0

     total cpu time spent up to now is     2641.6 secs

     End of self-consistent calculation

     Number of k-points >= 100: set verbosity='high' to print the bands.

     the Fermi energy is     0.9738 ev

!    total energy              =     -55.70004091 Ry
     Harris-Foulkes estimate   =     -55.70004095 Ry
     estimated scf accuracy    <       0.00000006 Ry

     The total energy is the sum of the following terms:

     one-electron contribution =      -2.19959234 Ry
     hartree contribution      =       7.30328737 Ry
     xc contribution           =     -14.85523302 Ry
     ewald contribution        =     -45.94818959 Ry
     smearing contrib. (-TS)   =      -0.00031333 Ry

     convergence has been achieved in   7 iterations

 Energies determined by pw2casino tool
 -------------------------------------
 Kinetic energy      8.6952320050795375       au  =     17.390464010159075       Ry
 Local energy       -9.7950281762511953       au  =    -19.590056352502391       Ry
 Non-Local energy    0.0000000000000000       au  =     0.0000000000000000       Ry
 Ewald energy       -22.974094793052480       au  =    -45.948189586104959       Ry
 xc contribution    -7.4276165081741947       au  =    -14.855233016348389       Ry
 hartree energy      3.6516436828062555       au  =     7.3032873656125110       Ry
 Smearing (-TS)     -1.5666484810715763E-004  au  =    -3.1332969621431525E-004  Ry
 Total energy       -27.850020454398937       au  =    -55.700040908797874       Ry
 -------------------------------------
 Total energy0      -27.850020454440184       au  =    -55.700040908880368       Ry
 External energy0    0.0000000000000000       au  =     0.0000000000000000       Ry
 -------------------------------------


     Writing output data file ./si.save/
