
     Program PWSCF v.6.5 starts on 30Mar2023 at 15:52:38 

     This program is part of the open-source Quantum ESPRESSO suite
     for quantum simulation of materials; please cite
         "P. Giannozzi et al., J. Phys.:Condens. Matter 21 395502 (2009);
         "P. Giannozzi et al., J. Phys.:Condens. Matter 29 465901 (2017);
          URL http://www.quantum-espresso.org", 
     in publications or presentations arising from this work. More details at
     http://www.quantum-espresso.org/quote

     Serial version
     Reading input from /home/valeria/Documents/DFTPY/Fitting_densities/Si7-CD/DATA2/Si20.in
Warning: card &IONS ignored
Warning: card / ignored
Warning: card &CELL ignored
Warning: card / ignored
Warning: card &FCP ignored
Warning: card / ignored
Warning: card &RISM ignored
Warning: card / ignored

     Current dimensions of program PWSCF are:
     Max number of different atomic species (ntypx) = 10
     Max number of k-points (npk) =  40000
     Max angular momentum in pseudopotentials (lmaxx) =  3

     WARNING: check_stop already initialized
     Message from routine setup:
     using ibrav=0 with symmetry is DISCOURAGED, use correct ibrav instead

     G-vector sticks info
     --------------------
     sticks:   dense  smooth     PW     G-vecs:    dense   smooth      PW
     Sum        2965    2965    829               121409   121409   17773



     bravais-lattice index     =            0
     lattice parameter (alat)  =      12.4550  a.u.
     unit-cell volume          =    1932.1022 (a.u.)^3
     number of atoms/cell      =            7
     number of atomic types    =            1
     number of electrons       =        28.00
     number of Kohn-Sham states=           18
     kinetic-energy cutoff     =      60.0000  Ry
     charge density cutoff     =     240.0000  Ry
     convergence threshold     =      1.0E-06
     mixing beta               =       0.7000
     number of iterations used =            8  plain     mixing
     Exchange-correlation= LDA
                           (   1   1   0   0   0   0   0)

     celldm(1)=  12.454989  celldm(2)=   0.000000  celldm(3)=   0.000000
     celldm(4)=   0.000000  celldm(5)=   0.000000  celldm(6)=   0.000000

     crystal axes: (cart. coord. in units of alat)
               a(1) = (   1.000000   0.000000   0.000000 )  
               a(2) = (   0.000000   1.000000   0.000000 )  
               a(3) = (   0.000000   0.000000   1.000000 )  

     reciprocal axes: (cart. coord. in units 2 pi/alat)
               b(1) = (  1.000000  0.000000  0.000000 )  
               b(2) = (  0.000000  1.000000  0.000000 )  
               b(3) = (  0.000000  0.000000  1.000000 )  


     PseudoPot. # 1 for Si read from file:
     /home/valeria/Desktop/programs/dftpy/examples/ofpp/EAC/upf/blps/si.lda.upf
     MD5 check sum: 946fc5a8d23174f015515f8139e499ed
     Pseudo is Norm-conserving, Zval =  4.0
     DFTpy
     Using radial grid of 1601 points,  1 beta functions with: 
                l(1) =   0

     atomic species   valence    mass     pseudopotential
        Si             4.00    28.08000     Si( 1.00)

     24 Sym. Ops. (no inversion) found (18 have fractional translation)



   Cartesian axes

     site n.     atom                  positions (alat units)
         1           Si  tau(   1) = (   0.0000000   0.0000000   0.0000000  )
         2           Si  tau(   2) = (   0.0000000   0.5000000   0.5000000  )
         3           Si  tau(   3) = (   0.2500000   0.7500000   0.7500000  )
         4           Si  tau(   4) = (   0.5000000   0.0000000   0.5000000  )
         5           Si  tau(   5) = (   0.7500000   0.2500000   0.7500000  )
         6           Si  tau(   6) = (   0.5000000   0.5000000   0.0000000  )
         7           Si  tau(   7) = (   0.7500000   0.7500000   0.2500000  )

     number of k points=   220  Gaussian smearing, width (Ry)=  0.0050

     Number of k-points >= 100: set verbosity='high' to print them.

     Dense  grid:   121409 G-vectors     FFT dimensions: (  64,  64,  64)

     Estimated max dynamical RAM per process >       1.00 GB

     Initial potential from superposition of free atoms

     starting charge   27.99552, renormalised to   28.00000
     Starting wfcs are random

     total cpu time spent up to now is       88.0 secs

     Self-consistent Calculation

     iteration #  1     ecut=    60.00 Ry     beta= 0.70
     Davidson diagonalization with overlap
     ethr =  1.00E-02,  avg # of iterations =  7.8

     Threshold (ethr) on eigenvalues was too large:
     Diagonalizing with lowered threshold

     Davidson diagonalization with overlap
     ethr =  3.19E-04,  avg # of iterations =  2.2

     total cpu time spent up to now is     1048.1 secs

     total energy              =     -55.60873252 Ry
     Harris-Foulkes estimate   =     -55.64620710 Ry
     estimated scf accuracy    <       0.08961477 Ry

     iteration #  2     ecut=    60.00 Ry     beta= 0.70
     Davidson diagonalization with overlap
     ethr =  3.20E-04,  avg # of iterations =  2.2

     total cpu time spent up to now is     1310.5 secs

     total energy              =     -55.61456078 Ry
     Harris-Foulkes estimate   =     -55.64098971 Ry
     estimated scf accuracy    <       0.05056985 Ry

     iteration #  3     ecut=    60.00 Ry     beta= 0.70
     Davidson diagonalization with overlap
     ethr =  1.81E-04,  avg # of iterations =  2.2

     total cpu time spent up to now is     1567.8 secs

     total energy              =     -55.62702286 Ry
     Harris-Foulkes estimate   =     -55.62849239 Ry
     estimated scf accuracy    <       0.00379625 Ry

     iteration #  4     ecut=    60.00 Ry     beta= 0.70
     Davidson diagonalization with overlap
     ethr =  1.36E-05,  avg # of iterations =  5.0

     total cpu time spent up to now is     1848.2 secs

     total energy              =     -55.62778484 Ry
     Harris-Foulkes estimate   =     -55.62793782 Ry
     estimated scf accuracy    <       0.00035522 Ry

     iteration #  5     ecut=    60.00 Ry     beta= 0.70
     Davidson diagonalization with overlap
     ethr =  1.27E-06,  avg # of iterations =  5.8

     total cpu time spent up to now is     2145.8 secs

     total energy              =     -55.62782375 Ry
     Harris-Foulkes estimate   =     -55.62784083 Ry
     estimated scf accuracy    <       0.00003071 Ry

     iteration #  6     ecut=    60.00 Ry     beta= 0.70
     Davidson diagonalization with overlap
     ethr =  1.10E-07,  avg # of iterations =  3.1

     total cpu time spent up to now is     2465.7 secs

     total energy              =     -55.62783609 Ry
     Harris-Foulkes estimate   =     -55.62784075 Ry
     estimated scf accuracy    <       0.00001045 Ry

     iteration #  7     ecut=    60.00 Ry     beta= 0.70
     Davidson diagonalization with overlap
     ethr =  3.73E-08,  avg # of iterations =  2.0

     total cpu time spent up to now is     2707.6 secs

     End of self-consistent calculation

     Number of k-points >= 100: set verbosity='high' to print the bands.

     the Fermi energy is     0.6954 ev

!    total energy              =     -55.62783748 Ry
     Harris-Foulkes estimate   =     -55.62783766 Ry
     estimated scf accuracy    <       0.00000024 Ry

     The total energy is the sum of the following terms:

     one-electron contribution =      -3.26061680 Ry
     hartree contribution      =       7.54308520 Ry
     xc contribution           =     -14.74491670 Ry
     ewald contribution        =     -45.16498181 Ry
     smearing contrib. (-TS)   =      -0.00040738 Ry

     convergence has been achieved in   7 iterations

 Energies determined by pw2casino tool
 -------------------------------------
 Kinetic energy      8.6161607311632551       au  =     17.232321462326510       Ry
 Local energy       -10.246469129066858       au  =    -20.492938258133716       Ry
 Non-Local energy    0.0000000000000000       au  =     0.0000000000000000       Ry
 Ewald energy       -22.582490903788816       au  =    -45.164981807577632       Ry
 xc contribution    -7.3724583488119695       au  =    -14.744916697623939       Ry
 hartree energy      3.7715426021286156       au  =     7.5430852042572312       Ry
 Smearing (-TS)     -2.0369139189882688E-004  au  =    -4.0738278379765376E-004  Ry
 Total energy       -27.813918739711745       au  =    -55.627837479423491       Ry
 -------------------------------------
 Total energy0      -27.813918739767672       au  =    -55.627837479535344       Ry
 External energy0    0.0000000000000000       au  =     0.0000000000000000       Ry
 -------------------------------------


     Writing output data file ./si.save/
