
     Program PWSCF v.6.5 starts on 31Mar2023 at  0:48:20 

     This program is part of the open-source Quantum ESPRESSO suite
     for quantum simulation of materials; please cite
         "P. Giannozzi et al., J. Phys.:Condens. Matter 21 395502 (2009);
         "P. Giannozzi et al., J. Phys.:Condens. Matter 29 465901 (2017);
          URL http://www.quantum-espresso.org", 
     in publications or presentations arising from this work. More details at
     http://www.quantum-espresso.org/quote

     Serial version
     Reading input from /home/valeria/Documents/DFTPY/Fitting_densities/Si7-CD/DATA2/Si28.in
Warning: card &IONS ignored
Warning: card / ignored
Warning: card &CELL ignored
Warning: card / ignored
Warning: card &FCP ignored
Warning: card / ignored
Warning: card &RISM ignored
Warning: card / ignored

     Current dimensions of program PWSCF are:
     Max number of different atomic species (ntypx) = 10
     Max number of k-points (npk) =  40000
     Max angular momentum in pseudopotentials (lmaxx) =  3

     WARNING: check_stop already initialized
     Message from routine setup:
     using ibrav=0 with symmetry is DISCOURAGED, use correct ibrav instead

     G-vector sticks info
     --------------------
     sticks:   dense  smooth     PW     G-vecs:    dense   smooth      PW
     Sum        3817    3817   1049               177917   177917   25533



     bravais-lattice index     =            0
     lattice parameter (alat)  =      14.1534  a.u.
     unit-cell volume          =    2835.1894 (a.u.)^3
     number of atoms/cell      =            7
     number of atomic types    =            1
     number of electrons       =        28.00
     number of Kohn-Sham states=           18
     kinetic-energy cutoff     =      60.0000  Ry
     charge density cutoff     =     240.0000  Ry
     convergence threshold     =      1.0E-06
     mixing beta               =       0.7000
     number of iterations used =            8  plain     mixing
     Exchange-correlation= LDA
                           (   1   1   0   0   0   0   0)

     celldm(1)=  14.153397  celldm(2)=   0.000000  celldm(3)=   0.000000
     celldm(4)=   0.000000  celldm(5)=   0.000000  celldm(6)=   0.000000

     crystal axes: (cart. coord. in units of alat)
               a(1) = (   1.000000   0.000000   0.000000 )  
               a(2) = (   0.000000   1.000000   0.000000 )  
               a(3) = (   0.000000   0.000000   1.000000 )  

     reciprocal axes: (cart. coord. in units 2 pi/alat)
               b(1) = (  1.000000  0.000000  0.000000 )  
               b(2) = (  0.000000  1.000000  0.000000 )  
               b(3) = (  0.000000  0.000000  1.000000 )  


     PseudoPot. # 1 for Si read from file:
     /home/valeria/Desktop/programs/dftpy/examples/ofpp/EAC/upf/blps/si.lda.upf
     MD5 check sum: 946fc5a8d23174f015515f8139e499ed
     Pseudo is Norm-conserving, Zval =  4.0
     DFTpy
     Using radial grid of 1601 points,  1 beta functions with: 
                l(1) =   0

     atomic species   valence    mass     pseudopotential
        Si             4.00    28.08000     Si( 1.00)

     24 Sym. Ops. (no inversion) found (18 have fractional translation)



   Cartesian axes

     site n.     atom                  positions (alat units)
         1           Si  tau(   1) = (   0.0000000   0.0000000   0.0000000  )
         2           Si  tau(   2) = (   0.0000000   0.5000000   0.5000000  )
         3           Si  tau(   3) = (   0.2500000   0.7500000   0.7500000  )
         4           Si  tau(   4) = (   0.5000000   0.0000000   0.5000000  )
         5           Si  tau(   5) = (   0.7500000   0.2500000   0.7500000  )
         6           Si  tau(   6) = (   0.5000000   0.5000000   0.0000000  )
         7           Si  tau(   7) = (   0.7500000   0.7500000   0.2500000  )

     number of k points=   220  Gaussian smearing, width (Ry)=  0.0050

     Number of k-points >= 100: set verbosity='high' to print them.

     Dense  grid:   177917 G-vectors     FFT dimensions: (  72,  72,  72)

     Estimated max dynamical RAM per process >       1.47 GB

     Initial potential from superposition of free atoms

     starting charge   27.99552, renormalised to   28.00000
     Starting wfcs are random

     total cpu time spent up to now is      131.6 secs

     Self-consistent Calculation

     iteration #  1     ecut=    60.00 Ry     beta= 0.70
     Davidson diagonalization with overlap
     ethr =  1.00E-02,  avg # of iterations =  8.0

     Threshold (ethr) on eigenvalues was too large:
     Diagonalizing with lowered threshold

     Davidson diagonalization with overlap
     ethr =  4.26E-04,  avg # of iterations =  2.9

     total cpu time spent up to now is     1637.3 secs

     total energy              =     -55.04604201 Ry
     Harris-Foulkes estimate   =     -55.10806471 Ry
     estimated scf accuracy    <       0.12118811 Ry

     iteration #  2     ecut=    60.00 Ry     beta= 0.70
     Davidson diagonalization with overlap
     ethr =  4.33E-04,  avg # of iterations =  3.8

     total cpu time spent up to now is     2139.4 secs

     total energy              =     -55.04247672 Ry
     Harris-Foulkes estimate   =     -55.12306822 Ry
     estimated scf accuracy    <       0.19030598 Ry

     iteration #  3     ecut=    60.00 Ry     beta= 0.70
     Davidson diagonalization with overlap
     ethr =  4.33E-04,  avg # of iterations =  3.0

     total cpu time spent up to now is     2537.2 secs

     total energy              =     -55.08110610 Ry
     Harris-Foulkes estimate   =     -55.08297484 Ry
     estimated scf accuracy    <       0.00586562 Ry

     iteration #  4     ecut=    60.00 Ry     beta= 0.70
     Davidson diagonalization with overlap
     ethr =  2.09E-05,  avg # of iterations =  5.6

     total cpu time spent up to now is     3079.6 secs

     total energy              =     -55.08300345 Ry
     Harris-Foulkes estimate   =     -55.08340365 Ry
     estimated scf accuracy    <       0.00121631 Ry

     iteration #  5     ecut=    60.00 Ry     beta= 0.70
     Davidson diagonalization with overlap
     ethr =  4.34E-06,  avg # of iterations =  4.4

     total cpu time spent up to now is     3453.5 secs

     total energy              =     -55.08302711 Ry
     Harris-Foulkes estimate   =     -55.08312438 Ry
     estimated scf accuracy    <       0.00023419 Ry

     iteration #  6     ecut=    60.00 Ry     beta= 0.70
     Davidson diagonalization with overlap
     ethr =  8.36E-07,  avg # of iterations =  3.6

     total cpu time spent up to now is     3932.7 secs

     total energy              =     -55.08310693 Ry
     Harris-Foulkes estimate   =     -55.08312301 Ry
     estimated scf accuracy    <       0.00004504 Ry

     iteration #  7     ecut=    60.00 Ry     beta= 0.70
     Davidson diagonalization with overlap
     ethr =  1.61E-07,  avg # of iterations =  2.4

     total cpu time spent up to now is     4314.0 secs

     total energy              =     -55.08311268 Ry
     Harris-Foulkes estimate   =     -55.08311343 Ry
     estimated scf accuracy    <       0.00000157 Ry

     iteration #  8     ecut=    60.00 Ry     beta= 0.70
     Davidson diagonalization with overlap
     ethr =  5.60E-09,  avg # of iterations =  4.8

     total cpu time spent up to now is     4879.8 secs

     total energy              =     -55.08311399 Ry
     Harris-Foulkes estimate   =     -55.08311448 Ry
     estimated scf accuracy    <       0.00000201 Ry

     iteration #  9     ecut=    60.00 Ry     beta= 0.70
     Davidson diagonalization with overlap
     ethr =  5.60E-09,  avg # of iterations =  1.9

     total cpu time spent up to now is     5205.1 secs

     End of self-consistent calculation

     Number of k-points >= 100: set verbosity='high' to print the bands.

     the Fermi energy is    -0.9363 ev

!    total energy              =     -55.08311370 Ry
     Harris-Foulkes estimate   =     -55.08311409 Ry
     estimated scf accuracy    <       0.00000048 Ry

     The total energy is the sum of the following terms:

     one-electron contribution =     -10.74347999 Ry
     hartree contribution      =       9.49761458 Ry
     xc contribution           =     -14.09044357 Ry
     ewald contribution        =     -39.74518399 Ry
     smearing contrib. (-TS)   =      -0.00162072 Ry

     convergence has been achieved in   9 iterations

 Energies determined by pw2casino tool
 -------------------------------------
 Kinetic energy      8.2405719449658648       au  =     16.481143889931730       Ry
 Local energy       -13.612311940739243       au  =    -27.224623881478486       Ry
 Non-Local energy    0.0000000000000000       au  =     0.0000000000000000       Ry
 Ewald energy       -19.872591996615363       au  =    -39.745183993230725       Ry
 xc contribution    -7.0452217874056746       au  =    -14.090443574811349       Ry
 hartree energy      4.7488072916484070       au  =     9.4976145832968140       Ry
 Smearing (-TS)     -8.1035987490400533E-004  au  =    -1.6207197498080107E-003  Ry
 Total energy       -27.541556847924753       au  =    -55.083113695849505       Ry
 -------------------------------------
 Total energy0      -27.541556848020914       au  =    -55.083113696041828       Ry
 External energy0    0.0000000000000000       au  =     0.0000000000000000       Ry
 -------------------------------------


     Writing output data file ./si.save/
