#     DFTpy    
  CRYSTAL 
    
  PRIMVEC    
  4.681034482758621    0.0    0.0    
  0.0    4.681034482758621    0.0    
  0.0    0.0    4.681034482758621    
  PRIMCOORD    
  7    1    
  Si    0.0    0.0    0.0    
  Si    0.0    2.3405172413793105    2.3405172413793105    
  Si    1.1702586206896601    3.510775862068971    3.510775862068971    
  Si    2.3405172413793105    0.0    2.3405172413793105    
  Si    3.510775862068971    1.1702586206896601    3.510775862068971    
  Si    2.3405172413793105    2.3405172413793105    0.0    
  Si    3.510775862068971    3.510775862068971    1.1702586206896601    
  BEGIN_BLOCK_DATAGRID_3D    
  3d_datagrid_density    
  BEGIN_DATAGRID_3D#0    
  49    49    49    
  0.0    0.0    0.0    
  4.681034500218969    0.0    0.0    
  0.0    4.681034500218969    0.0    
  0.0    0.0    4.681034500218969    
  0.04818546225312125    0.05557482675730063    0.0801246659876907    0.12736731946974572    0.19948550251574804    
  0.28729796528209767    0.3692179682792081    0.4220656334252585    0.4349144731961256    0.412844664367024    
  0.36954738741941323    0.3182161408594928    0.26745951911068205    0.22163174788626963    0.1824151536040984    
  0.15001776511728038    0.12391363911198794    0.10332512275559194    0.0874662030671157    0.07559578664312515    
  0.06702776401710311    0.061180604433493484    0.05762794227149893    0.056101532300752766    0.05646345365731375    
  0.05868515245968998    0.06283983459778449    0.06910385181052466    0.07777616803311516    0.08930732616594772    
  0.10429341107479975    0.12341563875079352    0.14737853734045026    0.1768856003057396    0.21256296362995777    
  0.2546897905137129    0.30271110455831607    0.35452338749331275    0.4053137096164956    0.4460447713323627    
  0.46332382457268717    0.4438360942027218    0.38364815596721596    0.29523512321538037    0.202899739268204    
  0.1283720212658436    0.08021453950882276    0.055493255845493715    0.04818546225312125    0.055574826757300716    
  0.062374425256853855    0.08644955147943968    0.1322482878207987    0.20073891217758513    0.2823363096243627    
  0.3566337400367863    0.40269917187956766    0.41141043750324147    0.38823402658503336    0.3461171248871537    
  0.2972221902270661    0.24937567807617186    0.20647779299661648    0.16997774402405602    0.13997824418305904    
  0.11592559784465457    0.09705821770656439    0.08262528787708921    0.07192698602358064    0.06431856956593049    
  0.059255479340727876    0.056341126385186346    0.05533004333462817    0.056101532300752786    0.05863956068660907    
  0.06302604441280751    0.06944416391117504    0.07820033359137063    0.08975538919797912    0.10471977457127796    
  0.12379203035839459    0.1476938242812827    0.17714573078985665    0.2128000260970966    0.25498475982566876    
  0.3032240444260564    0.35552926355142095    0.40726130905170754    0.44963384359447617    0.4694809470400246    
  0.4533735149455951    0.3965959865690905    0.31036292169515595    0.21809836771113061    0.14177765418488933    
  0.0910900799866182    0.06420085893373192    0.055574826757300716    0.0801246659876907    0.08644955147943963    
  0.11120267513057269    0.15658952407360538    0.22084108031287733    0.2930604392380524    0.3546183232604954    
  0.38859748519527065    0.3892694475619229    0.3629691117778915    0.3214585853104606    0.27518881153286    
  0.2307156993727054    0.1912417974505363    0.15788719317840194    0.13062230976047623    0.10887200426783925    
  0.09191155825183048    0.07904736242422661    0.06963801869701933    0.06309243759305823    0.05891173381035511    
  0.056734638701748316    0.0563411263851863    0.05762794227149888    0.060589497859877176    0.06531219625731656    
  0.07198039788148451    0.08090181154896887    0.09254135921820379    0.10751734574103833    0.12653732067319087    
  0.1503271427281517    0.1796066063724692    0.21503929908804867    0.2570057797616436    0.305150298366536    
  0.3577154847408137    0.41051664705600477    0.45556797639191465    0.4806633190806176    0.47264862278559294    
  0.42530097820169066    0.34661878083005776    0.25714043819827076    0.17857594259032034    0.12297874640356694    
  0.09143104128561735    0.0801246659876907    0.12736731946974572    0.13224828782079864    0.15658952407360538    
  0.1995494535744664    0.2560731557193297    0.3142814998394141    0.35844137247719493    0.37677491898049364    
  0.36738598744206574    0.33721354117410557    0.2963013750113708    0.2529531345898403    0.2122152468137074    
  0.1764936229127971    0.14654929903072206    0.1222219470561745    0.10293058530763378    0.08800516795687043    
  0.07682242404479664    0.0688075445358267    0.06342892346875595    0.06023803540749548    0.058911733810355076    
  0.05925547934072796    0.06118060443349346    0.06468653827969166    0.06985694901334279    0.07686950320142936    
  0.08602542098808127    0.097785988252854    0.1127696697559843    0.13168526846624376    0.15525327684639495    
  0.18417857836265222    0.21911882734858604    0.2604958716283773    0.30808338712229066    0.3604113450256076    
  0.4139175455064487    0.46180550838504947    0.4934820019743998    0.4967432918805768    0.46395770544718623    
  0.3989122202315612    0.317465469812447    0.23961715703447803    0.17964457435753065    0.14253847533793682    
  0.12736731946974572    0.19948550251574806    0.20073891217758508    0.22084108031287733    0.2560731557193297    
  0.2989559303943136    0.33809124061172674    0.3617767079766945    0.36343184463106704    0.34421185156497275    
  0.3108129236482543    0.27110182679053163    0.23112038068168614    0.1944284317277488    0.16267373062809273    
  0.13628858374705874    0.11501009083164694    0.09827616326141465    0.08548658037082549    0.0760933838428734    
  0.06958835697844638    0.06549929754086382    0.06342892346875594    0.06309243759305828    0.06431856956593048    
  0.0670277640171032    0.07121591229822419    0.07695337476715612    0.08439999270427631    0.09383954443813239    
  0.10571873853724778    0.12064584806983382    0.1393230328841819    0.16245973125177288    0.1907369241586427    
  0.2247877626935773    0.2650492247132878    0.31140147807163543    0.3626548859660397    0.41590389025741925    
  0.4656934129150006    0.5034574215155921    0.5187140151525877    0.5033196520735355    0.45717499510324294    
  0.390547945151339    0.31983324830645005    0.2598478725594764    0.21895439008219988    0.19948550251574806    
  0.28729796528209756    0.2823363096243626    0.2930604392380525    0.3142814998394141    0.33809124061172674    
  0.35529412398229476    0.35857651291261755    0.3454619816386648    0.31865788484623203    0.28372225205927676    
  0.24620798998028356    0.21011433822641828    0.1777374283416481    0.15009379327173988    0.12735326005939762    
  0.10919380448405162    0.09510034255681624    0.08455339779055877    0.0770787592306792    0.07222935109301429    
  0.06958835697844634    0.06880754453582665    0.06963801869701931    0.07192698602358054    0.07559578664312495    
  0.08062520854663764    0.08705843692442915    0.09502262183412712    0.10476873131720181    0.1167129240085356    
  0.13143828936092974    0.14963056148415546    0.17198566982952734    0.19915872780795957    0.2317437974314039    
  0.27016067833652463    0.3143550223278199    0.3633722807936423    0.41489672913615583    0.46473270281708906    
  0.5063892663623084    0.531606850316859    0.53289425890752    0.507643351273708    0.46097932285024085    
  0.40443060865088243    0.3509922121059821    0.3103738234923366    0.28729796528209756    0.36921796827920805    
  0.3566337400367863    0.35461832326049525    0.3584413724771948    0.36177670797669437    0.35857651291261755    
  0.3452145899707201    0.32162695625379245    0.29066301636865466    0.256295258529135    0.22204121993677564    
  0.19031073469907733    0.16245233154714134    0.13900949541815916    0.11996778591571043    0.1049922166002898    
  0.09363817446065299    0.08547058337927646    0.08008211384095351    0.07707875923067922    0.07609338384287335    
  0.07682242404479664    0.07904736242422658    0.08262528787708918    0.08746620306711572    0.09352070304695134    
  0.10078813291020856    0.10934530072422352    0.11939113022856651    0.13128991371318613    0.14557869804330414    
  0.1629131799575176    0.18397511980977746    0.2094009370708334    0.23974372263338778    0.2753827339246154    
  0.31629011751487285    0.36169481244238033    0.409764129777225    0.4573316183641737    0.49968519468152495    
  0.5307796806719773    0.5445672161175836    0.537558554055022    0.5112582936342264    0.47242463422344333    
  0.43056506952045825    0.39436059610913965    0.36921796827920805    0.4220656334252584    0.4026991718795675    
  0.38859748519527065    0.37677491898049353    0.3634318446310669    0.34546198163866465    0.3216269562537924    
  0.2927906168737088    0.2611784871286337    0.22929290843085048    0.19916541569661542    0.17213089260487582    
  0.14889857273011295    0.12968923628900622    0.11438003032337553    0.10266251698241001    0.09417497126581241    
  0.0885613421185561    0.08547058337927646    0.08455339779055869    0.08548658037082539    0.08800516795687045    
  0.09191155825183045    0.09705821770656431    0.1033251227555919    0.11061278183175242    0.11885813975054625    
  0.12807003490126231    0.13837570653304093    0.15006379357654007    0.16360001167374663    0.17959196316521614    
  0.19870624595542205    0.2215767521720961    0.2487334149216846    0.280515503803845    0.31690224466634614    
  0.35726939065135904    0.40017096706014155    0.44321014482987203    0.48298743142775125    0.5152355224457511    
  0.5354914346880105    0.540517714072135    0.5299469125831661    0.5069894365926144    0.47745877059070657    
  0.4476111139634543    0.4220656334252584    0.4349144731961256    0.4114104375032413    0.38926944756192283    
  0.3673859874420657    0.34421185156497275    0.3186578848462321    0.2906630163686547    0.2611784871286337    
  0.23168977724364567    0.2036620175933153    0.17821041672052298    0.15602450039605317    0.13741918448266632    
  0.12241964752895661    0.11086092847188542    0.10248837432910017    0.09702286139699441    0.09417497126581247    
  0.09363817446065303    0.09510034255681622    0.09827616326141465    0.10293058530763384    0.10887200426783925    
  0.1159255978446544    0.123913639111988    0.13266030089140407    0.14202036536587612    0.15192034643042543    
  0.1624008903323813    0.173654790459028    0.18605258030885302    0.2001350606036083    0.21655213869823628    
  0.2359571635001552    0.25889372631678903    0.2856919051002296    0.3163476168516613    0.3503680450435814    
  0.38662684351844734    0.4232913580495785    0.4578419268166264    0.4872170471774442    0.5082186149869514    
  0.5182895718736706    0.5164628479290674    0.5039247567035057    0.48371263215292776    0.4596229418119567    
  0.4349144731961256    0.41284466436702405    0.38823402658503325    0.3629691117778915    0.3372135411741055    
  0.31081292364825425    0.28372225205927676    0.25629525852913493    0.22929290843085048    0.20366201759331526    
  0.18026750032662597    0.15972725274918873    0.1423759921351694    0.1283088505461315    0.11745667722238858    
  0.1096639333081244    0.10474307215967953    0.10248837432910013    0.10266251698241    0.10499221660028972    
  0.10919380448405165    0.11501009083164687    0.12222194705617445    0.13062230976047623    0.139978244183059    
  0.15001776511728043    0.16045576412097562    0.1710433749274917    0.18161395647680662    0.19211370441781808    
  0.20262858915575346    0.21342070144849784    0.22495509108282158    0.23786958008477088    0.2528633804714718    
  0.2705416994191716    0.29127955372756875    0.3151264183396514    0.34172456804794615    0.3702240033919192    
  0.3992237208514071    0.42679301419231674    0.45062462538679665    0.468363697835336    0.4781031174452987    
  0.47890317616739214    0.4710811361286375    0.45608267483805603    0.4359808285259704    0.41284466436702405    
  0.36954738741941323    0.3461171248871537    0.3214585853104607    0.2963013750113707    0.2711018267905316    
  0.24620798998028354    0.22204121993677567    0.1991654156966154    0.178210416720523    0.1597272527491888    
  0.14407985667595563    0.13142311343693966    0.1217521064223127    0.11497804753617537    0.11098813197276257    
  0.10966393330812438    0.11086092847188543    0.11438003032337553    0.11996778591571038    0.12735326005939757    
  0.1362885837470586    0.14654929903072203    0.15788719317840194    0.16997774402405594    0.18241515360409838    
  0.1947682815164926    0.20665958746576568    0.21781680862922712    0.22808616491617986    0.2374448692952262    
  0.24605069096884077    0.25430658328636224    0.2628625586842694    0.272500475680178    0.28393952569440273    
  0.2976622040480765    0.3138235508729991    0.3322180791048722    0.3522427388707678    0.3728457749075821    
  0.39252750998648667    0.4094799669093633    0.4218918350008471    0.428336780293422    0.42808252988545253    
  0.42118392821435907    0.40835197418879676    0.39070950477213373    0.36954738741941323    0.3182161408594927    
  0.2972221902270661    0.27518881153286007    0.2529531345898402    0.23112038068168608    0.2101143382264182    
  0.19031073469907728    0.17213089260487577    0.1560245003960531    0.14237599213516944    0.13142311343693966    
  0.12324572066962479    0.11781837766381267    0.11508049612871214    0.11497804753617544    0.11745667722238864    
  0.12241964752895657    0.12968923628900625    0.13900949541815913    0.1500937932717398    0.16267373062809268    
  0.1764936229127971    0.19124179745053624    0.20647779299661634    0.2216317478862695    0.23609304999734337    
  0.24932510194142055    0.2609268469896693    0.27063080933625006    0.27830588426142744    0.28402642418709695    
  0.28817495619836264    0.2914673040252782    0.29482405621471247    0.2991357095178411    0.30505215826871274    
  0.31288622389124104    0.322607445308955    0.3338392837282102    0.34582120069798794    0.3573979882777268    
  0.3671395228288923    0.3736194678926238    0.3757471637415949    0.37297951791795414    0.36531969145299353    
  0.35317030920859344    0.3371888024074412    0.3182161408594927    0.267459519110682    0.24937567807617175    
  0.2307156993727054    0.2122152468137073    0.19442843172774868    0.1777374283416481    0.16245233154714134    
  0.14889857273011295    0.1374191844826663    0.12830885054613148    0.12175210642231268    0.11781837766381267    
  0.11650967950879086    0.11781837766381263    0.1217521064223127    0.12830885054613145    0.13741918448266627    
  0.14889857273011298    0.16245233154714128    0.17773742834164807    0.1944284317277486    0.2122152468137074    
  0.2307156993727054    0.24937567807617173    0.26745951911068194    0.2841593977238416    0.2987431770066078    
  0.3106353737036637    0.3194186779648001    0.32484632409897934    0.3269403980515622    0.3261264266761445    
  0.32326348296790053    0.3194849692698023    0.31591722101889735    0.31343408322970356    0.3125513188925988    
  0.3134340832297035    0.3159172210188974    0.3194849692698023    0.32326348296790053    0.3261264266761445    
  0.32694039805156233    0.3248463240989794    0.3194186779648002    0.31063537370366373    0.29874317700660785    
  0.28415939772384163    0.267459519110682    0.22163174788626958    0.20647779299661634    0.1912417974505363    
  0.17649362291279702    0.16267373062809273    0.1500937932717399    0.1390094954181592    0.12968923628900622    
  0.12241964752895666    0.1174566772223887    0.1149780475361754    0.1150804961287122    0.11781837766381263    
  0.12324572066962472    0.13142311343693963    0.14237599213516938    0.15602450039605312    0.1721308926048757    
  0.19031073469907714    0.21011433822641817    0.231120380681686    0.2529531345898401    0.27518881153285996    
  0.2972221902270659    0.3182161408594927    0.3371888024074412    0.35317030920859344    0.36531969145299353    
  0.3729795179179541    0.37574716374159484    0.3736194678926237    0.3671395228288924    0.35739798827772684    
  0.34582120069798794    0.33383928372821015    0.3226074453089551    0.31288622389124104    0.30505215826871274    
  0.29913570951784113    0.2948240562147124    0.2914673040252784    0.2881749561983627    0.2840264241870971    
  0.2783058842614275    0.2706308093362501    0.2609268469896694    0.24932510194142063    0.23609304999734354    
  0.22163174788626958    0.1824151536040984    0.16997774402405597    0.157887193178402    0.146549299030722    
  0.13628858374705866    0.12735326005939762    0.1199677859157104    0.11438003032337553    0.11086092847188542    
  0.10966393330812443    0.11098813197276261    0.11497804753617544    0.1217521064223127    0.13142311343693958    
  0.1440798566759556    0.15972725274918873    0.17821041672052298    0.19916541569661542    0.22204121993677559    
  0.24620798998028348    0.2711018267905315    0.29630137501137077    0.32145858531046057    0.3461171248871536    
  0.3695473874194131    0.3907095047721336    0.40835197418879665    0.421183928214359    0.42808252988545253    
  0.428336780293422    0.421891835000847    0.4094799669093633    0.39252750998648667    0.37284577490758214    
  0.3522427388707678    0.33221807910487233    0.3138235508729992    0.2976622040480765    0.28393952569440273    
  0.272500475680178    0.2628625586842694    0.2543065832863623    0.2460506909688409    0.2374448692952262    
  0.22808616491617986    0.21781680862922723    0.2066595874657657    0.19476828151649261    0.1824151536040984    
  0.1500177651172804    0.13997824418305901    0.13062230976047626    0.12222194705617442    0.11501009083164687    
  0.10919380448405165    0.10499221660028975    0.10266251698240995    0.10248837432910007    0.10474307215967955    
  0.10966393330812438    0.11745667722238863    0.12830885054613142    0.14237599213516938    0.15972725274918875    
  0.1802675003266259    0.20366201759331512    0.22929290843085037    0.2562952585291348    0.2837222520592767    
  0.31081292364825414    0.3372135411741055    0.3629691117778914    0.38823402658503325    0.41284466436702394    
  0.4359808285259703    0.4560826748380559    0.4710811361286374    0.4789031761673921    0.4781031174452987    
  0.4683636978353358    0.4506246253867967    0.42679301419231674    0.3992237208514071    0.3702240033919192    
  0.3417245680479462    0.31512641833965144    0.29127955372756875    0.27054169941917167    0.2528633804714717    
  0.23786958008477094    0.22495509108282158    0.21342070144849787    0.20262858915575352    0.19211370441781817    
  0.18161395647680664    0.1710433749274917    0.16045576412097567    0.1500177651172804    0.12391363911198797    
  0.11592559784465442    0.10887200426783925    0.10293058530763381    0.09827616326141464    0.09510034255681624    
  0.09363817446065305    0.09417497126581245    0.0970228613969944    0.10248837432910023    0.11086092847188543    
  0.12241964752895663    0.13741918448266632    0.15602450039605306    0.17821041672052298    0.20366201759331523    
  0.23168977724364562    0.2611784871286337    0.29066301636865455    0.3186578848462319    0.3442118515649727    
  0.3673859874420657    0.38926944756192283    0.41141043750324124    0.4349144731961256    0.4596229418119567    
  0.48371263215292787    0.5039247567035057    0.5164628479290674    0.5182895718736706    0.5082186149869513    
  0.4872170471774443    0.4578419268166265    0.4232913580495786    0.3866268435184474    0.3503680450435815    
  0.3163476168516614    0.2856919051002297    0.25889372631678914    0.23595716350015528    0.21655213869823633    
  0.2001350606036083    0.1860525803088531    0.1736547904590281    0.16240089033238134    0.15192034643042554    
  0.14202036536587612    0.13266030089140407    0.12391363911198797    0.10332512275559184    0.09705821770656432    
  0.0919115582518305    0.08800516795687033    0.08548658037082532    0.08455339779055884    0.08547058337927645    
  0.08856134211855607    0.09417497126581242    0.10266251698240998    0.11438003032337553    0.12968923628900622    
  0.14889857273011295    0.1721308926048757    0.19916541569661542    0.22929290843085035    0.2611784871286337    
  0.2927906168737088    0.3216269562537923    0.3454619816386647    0.36343184463106687    0.3767749189804936    
  0.38859748519527065    0.40269917187956755    0.4220656334252584    0.4476111139634543    0.4774587705907067    
  0.5069894365926143    0.5299469125831661    0.540517714072135    0.5354914346880104    0.5152355224457513    
  0.48298743142775125    0.44321014482987214    0.4001709670601416    0.3572693906513592    0.31690224466634614    
  0.280515503803845    0.2487334149216846    0.22157675217209605    0.19870624595542222    0.17959196316521606    
  0.16360001167374666    0.15006379357654007    0.13837570653304096    0.12807003490126237    0.1188581397505463    
  0.11061278183175256    0.10332512275559184    0.0874662030671157    0.08262528787708912    0.07904736242422661    
  0.07682242404479664    0.07609338384287331    0.07707875923067922    0.08008211384095353    0.08547058337927646    
  0.09363817446065294    0.10499221660028984    0.11996778591571045    0.13900949541815916    0.16245233154714128    
  0.1903107346990772    0.22204121993677564    0.2562952585291349    0.2906630163686546    0.3216269562537924    
  0.34521458997072    0.3585765129126175    0.3617767079766943    0.35844137247719493    0.35461832326049525    
  0.3566337400367862    0.36921796827920805    0.3943605961091397    0.4305650695204585    0.47242463422344316    
  0.5112582936342264    0.537558554055022    0.5445672161175835    0.5307796806719777    0.49968519468152495    
  0.45733161836417374    0.409764129777225    0.36169481244238044    0.3162901175148729    0.2753827339246153    
  0.23974372263338772    0.20940093707083343    0.1839751198097776    0.1629131799575176    0.14557869804330426    
  0.13128991371318616    0.11939113022856655    0.10934530072422358    0.10078813291020854    0.09352070304695137    
  0.0874662030671157    0.07559578664312502    0.07192698602358048    0.06963801869701926    0.06880754453582667    
  0.0695883569784463    0.07222935109301422    0.07707875923067925    0.0845533977905588    0.09510034255681626    
  0.10919380448405175    0.1273532600593976    0.15009379327173988    0.17773742834164802    0.21011433822641815    
  0.24620798998028348    0.28372225205927676    0.318657884846232    0.3454619816386647    0.35857651291261755    
  0.35529412398229476    0.3380912406117268    0.31428149983941434    0.2930604392380525    0.2823363096243627    
  0.28729796528209767    0.31037382349233666    0.3509922121059822    0.40443060865088243    0.460979322850241    
  0.507643351273708    0.53289425890752    0.5316068503168592    0.5063892663623085    0.46473270281708917    
  0.4148967291361559    0.3633722807936424    0.31435502232782    0.27016067833652463    0.2317437974314039    
  0.1991587278079596    0.17198566982952748    0.14963056148415546    0.13143828936092986    0.11671292400853571    
  0.10476873131720187    0.09502262183412724    0.08705843692442913    0.08062520854663763    0.07559578664312502    
  0.06702776401710316    0.06431856956593042    0.06309243759305824    0.06342892346875592    0.06549929754086377    
  0.06958835697844627    0.0760933838428734    0.0854865803708255    0.09827616326141461    0.11501009083164705    
  0.1362885837470587    0.16267373062809273    0.1944284317277487    0.23112038068168606    0.2711018267905316    
  0.31081292364825414    0.3442118515649727    0.363431844631067    0.3617767079766943    0.33809124061172685    
  0.29895593039431356    0.2560731557193298    0.2208410803128774    0.2007389121775851    0.1994855025157481    
  0.21895439008219997    0.25984787255947644    0.31983324830644994    0.3905479451513391    0.45717499510324294    
  0.5033196520735354    0.5187140151525879    0.5034574215155921    0.46569341291500066    0.4159038902574193    
  0.3626548859660398    0.3114014780716355    0.2650492247132879    0.2247877626935773    0.1907369241586427    
  0.16245973125177296    0.13932303288418185    0.12064584806983386    0.10571873853724781    0.09383954443813237    
  0.08439999270427631    0.07695337476715614    0.07121591229822416    0.06702776401710316    0.06118060443349346    
  0.05925547934072791    0.058911733810355076    0.0602380354074954    0.06342892346875594    0.0688075445358267    
  0.07682242404479667    0.08800516795687047    0.10293058530763384    0.12222194705617452    0.146549299030722    
  0.17649362291279708    0.21221524681370735    0.25295313458984015    0.2963013750113707    0.3372135411741055    
  0.3673859874420657    0.37677491898049364    0.3584413724771949    0.3142814998394143    0.25607315571932976    
  0.19954945357446652    0.15658952407360538    0.1322482878207987    0.1273673194697458    0.14253847533793693    
  0.1796445743575307    0.23961715703447797    0.31746546981244705    0.3989122202315612    0.46395770544718623    
  0.496743291880577    0.4934820019743999    0.4618055083850495    0.4139175455064487    0.3604113450256078    
  0.30808338712229083    0.26049587162837745    0.219118827348586    0.18417857836265217    0.1552532768463951    
  0.13168526846624376    0.1127696697559844    0.09778598825285403    0.08602542098808125    0.07686950320142935    
  0.06985694901334277    0.0646865382796917    0.06118060443349346    0.05762794227149884    0.05634112638518623    
  0.05673463870174834    0.058911733810355055    0.0630924375930582    0.06963801869701922    0.07904736242422664    
  0.09191155825183041    0.1088720042678392    0.13062230976047623    0.15788719317840197    0.19124179745053616    
  0.23071569937270536    0.2751888115328599    0.32145858531046057    0.36296911177789143    0.38926944756192283    
  0.3885974851952706    0.3546183232604953    0.29306043923805253    0.22084108031287739    0.1565895240736055    
  0.11120267513057272    0.08644955147943964    0.0801246659876907    0.09143104128561735    0.12297874640356687    
  0.17857594259032022    0.25714043819827076    0.34661878083005765    0.42530097820169055    0.47264862278559305    
  0.4806633190806175    0.45556797639191465    0.4105166470560049    0.35771548474081394    0.30515029836653607    
  0.2570057797616436    0.21503929908804867    0.1796066063724692    0.15032714272815184    0.12653732067319096    
  0.10751734574103843    0.09254135921820383    0.08090181154896893    0.0719803978814845    0.06531219625731653    
  0.060589497859877196    0.05762794227149884    0.05610153230075273    0.05533004333462807    0.056341126385186346    
  0.05925547934072789    0.06431856956593043    0.07192698602358061    0.08262528787708925    0.09705821770656442    
  0.1159255978446544    0.1399782441830591    0.16997774402405597    0.2064777929966164    0.24937567807617175    
  0.2972221902270659    0.34611712488715357    0.3882340265850332    0.41141043750324136    0.40269917187956766    
  0.35663374003678633    0.28233630962436285    0.2007389121775851    0.1322482878207989    0.08644955147943972    
  0.06237442525685387    0.055574826757300654    0.06420085893373198    0.09109007998661828    0.1417776541848893    
  0.21809836771113067    0.31036292169515595    0.39659598656909056    0.4533735149455951    0.4694809470400246    
  0.4496338435944763    0.4072613090517076    0.35552926355142106    0.30322404442605644    0.2549847598256688    
  0.21280002609709667    0.17714573078985665    0.14769382428128275    0.12379203035839449    0.1047197745712781    
  0.08975538919797915    0.07820033359137066    0.06944416391117497    0.06302604441280756    0.058639560686609075    
  0.05610153230075273    0.05646345365731375    0.056101532300752675    0.057627942271498915    0.061180604433493414    
  0.06702776401710309    0.07559578664312509    0.08746620306711575    0.10332512275559194    0.12391363911198792    
  0.15001776511728046    0.1824151536040984    0.22163174788626958    0.26745951911068205    0.3182161408594926    
  0.3695473874194132    0.41284466436702394    0.4349144731961256    0.4220656334252586    0.36921796827920805    
  0.2872979652820977    0.19948550251574804    0.1273673194697459    0.0801246659876907    0.05557482675730063    
  0.04818546225312124    0.05549325584549375    0.08021453950882278    0.1283720212658434    0.202899739268204    
  0.2952351232153803    0.38364815596721596    0.4438360942027219    0.4633238245726873    0.44604477133236275    
  0.4053137096164956    0.3545233874933129    0.3027111045583162    0.2546897905137129    0.21256296362995777    
  0.1768856003057396    0.14737853734045037    0.12341563875079346    0.10429341107479982    0.08930732616594779    
  0.0777761680331152    0.06910385181052461    0.06283983459778451    0.05868515245969001    0.05646345365731375    
  0.05868515245969002    0.05863956068660897    0.060589497859877224    0.06468653827969162    0.07121591229822408    
  0.08062520854663763    0.09352070304695147    0.1106127818317525    0.13266030089140407    0.16045576412097579    
  0.19476828151649273    0.2360930499973434    0.2841593977238417    0.33718880240744115    0.3907095047721337    
  0.4359808285259704    0.4596229418119568    0.4476111139634544    0.3943605961091397    0.3103738234923368    
  0.21895439008219994    0.142538475337937    0.09143104128561737    0.06420085893373191    0.05549325584549377    
  0.06266529561520585    0.0880523027703824    0.13701281629655818    0.21156803213633002    0.30251257136633863    