#     DFTpy    
  CRYSTAL 
    
  PRIMVEC    
  5.13041379310345    0.0    0.0    
  0.0    5.13041379310345    0.0    
  0.0    0.0    5.13041379310345    
  PRIMCOORD    
  7    1    
  Si    0.0    0.0    0.0    
  Si    0.0    2.5652068965517203    2.5652068965517203    
  Si    1.2826034482758601    3.8478103448275913    3.8478103448275913    
  Si    2.5652068965517203    0.0    2.5652068965517203    
  Si    3.8478103448275913    1.2826034482758601    3.8478103448275913    
  Si    2.5652068965517203    2.5652068965517203    0.0    
  Si    3.8478103448275913    3.8478103448275913    1.2826034482758601    
  BEGIN_BLOCK_DATAGRID_3D    
  3d_datagrid_density    
  BEGIN_DATAGRID_3D#0    
  49    49    49    
  0.0    0.0    0.0    
  5.1304138122399925    0.0    0.0    
  0.0    5.1304138122399925    0.0    
  0.0    0.0    5.1304138122399925    
  0.048449352123528945    0.05748499524471161    0.08674595463447475    0.1424836144608459    0.22356733411060545    
  0.3118724300001657    0.3779293240601726    0.4011147972938441    0.38244162949595656    0.33784829200916167    
  0.2841979064441188    0.23212941792525055    0.18643382933210345    0.14851586073228504    0.11811523231932973    
  0.09427693275906518    0.0759146927621232    0.06202662111351088    0.05171203875937756    0.044192544217474095    
  0.03886235112842119    0.035291347110416836    0.03318087865986019    0.032329441651681626    0.03262300261795912    
  0.03403009839957514    0.036599509928013536    0.04046469849674828    0.045844642295156904    0.053046156376975837    
  0.06249222736974557    0.07475761712556529    0.09054998640352961    0.11064482871521997    0.13586065190302893    
  0.16704434801323553    0.20486260243360202    0.24926982569789496    0.2986029067840702    0.3479654026758183    
  0.386979454750519    0.39971676129495354    0.37183077897838906    0.30372219776054576    0.21612139026361768    
  0.137246611729464    0.08378740438706786    0.056230241140362194    0.048449352123528945    0.05748499524471158    
  0.06629495851163646    0.09567161038543964    0.15037406103909493    0.22765908331310505    0.309239817642941    
  0.367699221489278    0.3851558015263994    0.36392717296720845    0.3194664701960641    0.2674685911971868    
  0.2176463383018016    0.1742860539141963    0.13855235302500699    0.1100791102563316    0.0878818517049599    
  0.07088560257376095    0.05811596992218661    0.04870609176373761    0.04191400508415844    0.03716850749948049    
  0.03406864320012918    0.03233848769000736    0.0317930476987119    0.032329441651681744    0.03392402553837808    
  0.036632453870937914    0.04059517772566868    0.046037541138189184    0.05327080378534413    0.0627208790918477    
  0.07496746677977084    0.09072948173227913    0.11080003643137362    0.13601737825595567    0.1672498782099758    
  0.20519664656268222    0.24987175646064372    0.2997300435237018    0.3501134518894395    0.3910347209080697    
  0.40689555272623645    0.3830446123435204    0.31854422445053043    0.23245930766412837    0.1525079965043716    
  0.0965127246385582    0.0665760713211725    0.05748499524471158    0.08674595463447472    0.0956716103854397    
  0.12643474571294663    0.18040565075798146    0.2511837047172553    0.32002376308965635    0.3637039169556884    
  0.369833190740884    0.3432056638767927    0.29822215906499105    0.24831220408180676    0.201493623274411    
  0.1611996116853223    0.12823673034503105    0.10211455210237338    0.08184645204756537    0.0664094404173414    
  0.054889925855499684    0.04647728189488163    0.04048234672196976    0.036381021186570564    0.03380936941027385    
  0.03251765209634704    0.03233848769000738    0.033180878659860344    0.0350300442614508    0.03794935219952634    
  0.04208602254362765    0.04766981956207622    0.055011906637611185    0.06453322926837726    0.07680823662684168    
  0.09255621422575813    0.11257287944734987    0.13768965119152915    0.16876127851468317    0.20649824437600633    
  0.2509995297708442    0.300963224201713    0.35233311610848556    0.3963026470174981    0.4186803930588207    
  0.4049326451503203    0.3513452599549419    0.27236201462739523    0.19311630743122352    0.13314459953976304    
  0.09846998564203345    0.08674595463447472    0.14248361446084584    0.1503740610390949    0.18040565075798146    
  0.22955548924603114    0.2876862708145075    0.3370777480424558    0.3607040596971612    0.35263793335620425    
  0.3197740878600843    0.2745441972640968    0.2273926057392482    0.18428037666697136    0.1476476286650475    
  0.1179027958144152    0.0944419852109544    0.07631192488132174    0.06257792333583775    0.052412925112426394    
  0.04507950332502357    0.03995342323546016    0.03656542698348764    0.03459177526640439    0.03380936941027396    
  0.034068643200129346    0.035291347110417044    0.03747209530529899    0.04068049716844514    0.04506649130258487    
  0.05085877237756802    0.058362524600206876    0.06798659048135125    0.08029057266963326    0.09598215414780084    
  0.1158430270433624    0.1406696739331587    0.17126305992491883    0.20831099501760209    0.2519973773597913    
  0.3013260338148491    0.353040722069932    0.40001734310618314    0.4303911060768877    0.43072723560052534    
  0.3945884767279993    0.330178827369198    0.25755707949885764    0.19653583875015962    0.1575496094332267    
  0.14248361446084584    0.22356733411060534    0.22765908331310505    0.2511837047172553    0.2876862708145075    
  0.3255407229722247    0.35050650371204584    0.352523407956297    0.33097091289694    0.2932545167956721    
  0.248979863318012    0.20545425795015504    0.16666520421776748    0.1341292169146199    0.10789767705493845    
  0.08729519196502519    0.07144175731909315    0.05951716321903238    0.05079518376299994    0.04462158502243562    
  0.04044480396453143    0.037854041716451126    0.03656542698348771    0.03638102118657079    0.037168507499480676    
  0.03886235112842156    0.04146514801035484    0.04504814721343529    0.049756067640479025    0.05580742584661671    
  0.06349355045800884    0.07320385702239664    0.08547331410453106    0.10098480562518722    0.1204898365895618    
  0.1447263692883387    0.1744041982770871    0.2101441281080403    0.25218345881008997    0.2998184226125444    
  0.35059183388261483    0.3991559083310315    0.43644164494056115    0.45125439981916343    0.43590348017273384    
  0.39281031187989085    0.33530100471095464    0.28056945805135386    0.24142301699887844    0.22356733411060534    
  0.31187243000016573    0.30923981764294106    0.3200237630896563    0.3370777480424558    0.3505065037120458    
  0.35115465531871043    0.33480375680413205    0.30367526193477773    0.26402486927864005    0.22238398691372477    
  0.1833524852075657    0.1493442293296886    0.12115473251628643    0.09857619599891755    0.0809240636265112    
  0.06742681744631268    0.057390199582657286    0.05019159690264305    0.045264064350304056    0.042132605574520005    
  0.04044480396453152    0.03995342323546033    0.04048234672197016    0.041914005084158844    0.04419254421747452    
  0.04732350222523998    0.051372064698444284    0.056467525296888865    0.06280716792210754    0.07065902291186377    
  0.08038505655484836    0.0924852480731059    0.10760346679901317    0.1264470663912716    0.14968255705607847    
  0.17790553744826676    0.21162635741445232    0.25107824232043674    0.2957752303052048    0.3439104157884785    
  0.39164911640406164    0.4325752635775032    0.4583612601058488    0.46190371256465296    0.4419580683349045    
  0.40541792371371443    0.36447824590471595    0.3308913508358869    0.31187243000016573    0.3779293240601726    
  0.3676992214892781    0.3637039169556885    0.3607040596971613    0.35252340795629705    0.3348037568041321    
  0.3068919488087518    0.27159691520675733    0.23326231637505965    0.19583060534526261    0.1619543260251273    
  0.13297117565225655    0.10919344864233389    0.09027374312955258    0.07558297815158486    0.06447989301711607    
  0.05639378191598094    0.05080157919182345    0.04722448998965885    0.045264064350304126    0.04462158502243581    
  0.045079503325023876    0.046477281894882025    0.04870609176373812    0.051712038759378194    0.05549391750681314    
  0.06010032145120823    0.06563419492953824    0.07226054655572534    0.08021456325496779    0.08982327348668281    
  0.10154257986843711    0.1159638056657687    0.1337383908222891    0.15545959389587716    0.18160733029530113    
  0.21255446331685962    0.24846570827403833    0.28897073903760084    0.33271492188083857    0.3769573600071374    
  0.4173438927739225    0.4482295414355776    0.46419555381411914    0.4626865664469413    0.4460980102313091    
  0.4212853571872247    0.3965027404199749    0.3779293240601726    0.401114797293844    0.3851558015263995    
  0.36983319074088394    0.3526379333562042    0.33097091289694    0.3036752619347776    0.2715969152067572    
  0.23700764074791075    0.20253997035408997    0.17039034677036344    0.1420067182085071    0.11807009818499152    
  0.09861694378321402    0.0832712496854355    0.07150893028387924    0.06282369162011862    0.056757532531318475    
  0.05288099650233301    0.05080157919182354    0.050191596902643264    0.050795183763000296    0.05241292511242684    
  0.05488992585550034    0.05811596992218724    0.0620266211135117    0.06659977586947444    0.07185407452162962    
  0.0778544460727672    0.08472297741746608    0.09265317577954968    0.1019317447422473    0.11296608636428623    
  0.12628673227355638    0.1424814944169522    0.16207683012318105    0.1854566185685812    0.21285860126244643    
  0.24433406526036833    0.2795353355624358    0.3173932176142936    0.35589264652542474    0.3920668471010495    
  0.4222561867187589    0.4428042037370234    0.4512977511017757    0.4478506201820525    0.43540045365113206    
  0.4184784918911343    0.401114797293844    0.38244162949595645    0.3639271729672085    0.34320566387679263    
  0.31977408786008427    0.2932545167956721    0.26402486927864    0.23326231637505962    0.20253997035408997    
  0.173374724815134    0.14696169504747117    0.12406698572041726    0.10500105864208412    0.08968057461269735    
  0.07778309912312599    0.0689131545384522    0.0626890869704629    0.058751521635131594    0.05675753253131872    
  0.056393781915981205    0.05739019958265771    0.05951716321903299    0.06257792333583853    0.06640944041734226    
  0.07088560257376186    0.0759146927621243    0.08143592742230203    0.08742188027600607    0.09388655282556295    
  0.10089880575440849    0.10860271384868185    0.11724152090618543    0.1271755803615262    0.13887609322485223    
  0.1528689416947392    0.16962876455478407    0.18948053316066804    0.21256420988429603    0.23881529911158858    
  0.2678530414938257    0.2987848880663073    0.33008884668498006    0.35969267906488556    0.38520923442539334    
  0.40428012288658954    0.4150852063270818    0.4169638027529652    0.4107683653889017    0.3985227956379487    
  0.38244162949595645    0.33784829200916167    0.3194664701960641    0.29822215906499105    0.2745441972640968    
  0.248979863318012    0.22238398691372468    0.19583060534526253    0.1703903467703634    0.1469616950474712    
  0.1262016268358557    0.10850107338558265    0.09398323853962985    0.08255086206555945    0.07397824227950638    
  0.06799497339838888    0.0643239166405184    0.0626890869704631    0.06282369162011904    0.06447989301711657    
  0.0674268174463134    0.07144175731909402    0.07631192488132275    0.0818464520475665    0.08788185170496121    
  0.0942769327590666    0.10091089617908945    0.10769182749100965    0.11456983657681956    0.12155382118948072    
  0.12873625961245289    0.13631858151186363    0.14462069202286715    0.15406527785364493    0.1651304717943241    
  0.17826487941148578    0.19378506814717245    0.2118013413303562    0.23218244291543022    0.2545114094316866    
  0.27801275692913824    0.3015234007740242    0.32358131167282306    0.3425974043572253    0.35703497825057273    
  0.36561437181972045    0.36759434330096724    0.3630233624020176    0.3527139548261187    0.33784829200916167    
  0.28419790644411874    0.2674685911971868    0.24831220408180676    0.22739260573924813    0.20545425795015504    
  0.1833524852075656    0.1619543260251273    0.14200671820850705    0.12406698572041722    0.10850107338558262    
  0.09550671678268853    0.0851400763115335    0.07734931281922268    0.07201129378618501    0.06895843674986264    
  0.0679949733983891    0.06891315453845263    0.07150893028387986    0.07558297815158567    0.08092406362651218    
  0.08729519196502632    0.09444198521095573    0.10211455210237491    0.11007911025633321    0.11811523231933149    
  0.12601663931138274    0.13360623560495483    0.14075878171537176    0.14742554069342056    0.15366084639439942    
  0.15964130874524649    0.16566349530663008    0.1721209122486709    0.17946786221378402    0.1881602653518032    
  0.19856105748102346    0.2108330496883557    0.22486551185001435    0.24025368306461203    0.25631830550299467    
  0.2721594491613174    0.2867459099864322    0.29901431869914236    0.30794811883078227    0.31266384699418953    
  0.312558987242146    0.307484586359837    0.29779702981488004    0.28419790644411874    0.23212941792525055    
  0.2176463383018016    0.201493623274411    0.1842803766669713    0.16666520421776754    0.14934422932968858    
  0.13297117565225647    0.11807009818499148    0.10500105864208412    0.0939832385396298    0.08514007631153349    
  0.07853364697278625    0.07417733685959249    0.0720334832607142    0.07201129378618526    0.07397824227950686    
  0.0777830991231266    0.08327124968543648    0.09027374312955369    0.09857619599891893    0.10789767705494012    
  0.11790279581441705    0.12823673034503308    0.13855235302500912    0.1485158607322872    0.1578079006531716    
  0.16614260617858226    0.17330697157697011    0.17920491454408882    0.18388633458500545    0.18754723723163233    
  0.19050295898514555    0.19315538874511265    0.19597026995473996    0.1994460108840885    0.20403603655091435    
  0.2100239071550808    0.21741010913098033    0.2258787704491253    0.23485930371239544    0.2436396664475428    
  0.25147122717968823    0.257628569153174    0.26143232795905735    0.2622840996656382    0.25975626887194986    
  0.2537095657105721    0.24434507599876995    0.23212941792525055    0.18643382933210345    0.1742860539141963    
  0.16119961168532237    0.1476476286650475    0.13412921691461996    0.1211547325162864    0.10919344864233395    
  0.09861694378321402    0.08968057461269739    0.08255086206555949    0.07734931281922272    0.07417733685959257    
  0.07311042452729266    0.07417733685959278    0.0773493128192232    0.08255086206556025    0.08968057461269834    
  0.09861694378321534    0.10919344864233546    0.12115473251628828    0.134129216914622    0.1476476286650499    
  0.1611996116853249    0.17428605391419894    0.18643382933210612    0.19718766909169008    0.2061267116149658    
  0.21293003325248816    0.21745942499824228    0.21980045140751261    0.2202344439578584    0.2191708646469086    
  0.21709344724179605    0.2145427553062647    0.21210417478123367    0.21034830058820375    0.2097084464658412    
  0.2103483005882034    0.2121041747812331    0.21454275530626382    0.21709344724179488    0.21917086464690716    
  0.22023444395785668    0.2198004514075107    0.21745942499824014    0.21293003325248577    0.2061267116149632    
  0.1971876690916874    0.18643382933210345    0.14851586073228504    0.138552353025007    0.12823673034503102    
  0.11790279581441522    0.10789767705493847    0.09857619599891751    0.0902737431295526    0.08327124968543548    
  0.07778309912312602    0.0739782422795064    0.07201129378618502    0.07203348326071424    0.07417733685959275    
  0.07853364697278668    0.08514007631153424    0.09398323853963086    0.10500105864208541    0.11807009818499323    
  0.13297117565225852    0.14934422932969094    0.1666652042177701    0.18428037666697422    0.20149362327441409    
  0.21764633830180474    0.23212941792525368    0.244345075998773    0.2537095657105751    0.2597562688719526    
  0.2622840996656407    0.2614323279590594    0.2576285691531757    0.2514712271796895    0.24363966644754378    
  0.2348593037123961    0.22587877044912566    0.21741010913098022    0.21002390715508049    0.20403603655091374    
  0.19944601088408762    0.19597026995473887    0.19315538874511134    0.1905029589851441    0.18754723723163075    
  0.18388633458500367    0.17920491454408685    0.17330697157696792    0.1661426061785801    0.15780790065316944    
  0.14851586073228504    0.11811523231932976    0.11007911025633157    0.10211455210237338    0.09444198521095433    
  0.08729519196502517    0.08092406362651113    0.07558297815158489    0.07150893028387921    0.06891315453845223    
  0.06799497339838889    0.06895843674986259    0.07201129378618526    0.07734931281922318    0.08514007631153424    
  0.09550671678268961    0.10850107338558403    0.12406698572041892    0.14200671820850927    0.1619543260251298    
  0.1833524852075685    0.20545425795015815    0.22739260573925152    0.2483122040818103    0.2674685911971903    
  0.2841979064441223    0.2977970298148835    0.3074845863598402    0.3125589872421488    0.312663846994192    
  0.3079481188307842    0.29901431869914386    0.2867459099864333    0.27215944916131807    0.25631830550299495    
  0.240253683064612    0.2248655118500139    0.21083304968835506    0.19856105748102262    0.1881602653518022    
  0.17946786221378283    0.17212091224866952    0.16566349530662866    0.15964130874524485    0.1536608463943978    
  0.14742554069341873    0.14075878171536998    0.13360623560495305    0.1260166393113809    0.11811523231932976    
  0.09427693275906518    0.08788185170496    0.08184645204756541    0.07631192488132169    0.07144175731909325    
  0.06742681744631265    0.0644798930171161    0.06282369162011858    0.06268908697046296    0.06432391664051834    
  0.06799497339838907    0.07397824227950689    0.0825508620655602    0.0939832385396309    0.10850107338558401    
  0.1262016268358575    0.14696169504747333    0.17039034677036605    0.19583060534526553    0.222383986913728    
  0.24897986331801547    0.27454419726410034    0.29822215906499466    0.31946647019606755    0.337848292009165    
  0.352713954826122    0.36302336240202054    0.36759434330097    0.36561437181972284    0.35703497825057445    
  0.34259740435722663    0.3235813116728237    0.3015234007740244    0.2780127569291382    0.25451140943168615    
  0.2321824429154295    0.21180134133035527    0.19378506814717142    0.17826487941148472    0.16513047179432286    
  0.1540652778536436    0.14462069202286584    0.1363185815118623    0.12873625961245158    0.12155382118947927    
  0.11456983657681806    0.10769182749100824    0.10091089617908805    0.09427693275906518    0.0759146927621233    
  0.0708856025737609    0.06640944041734141    0.06257792333583773    0.05951716321903245    0.05739019958265722    
  0.05639378191598102    0.056757532531318475    0.05875152163513164    0.06268908697046312    0.0689131545384527    
  0.07778309912312668    0.08968057461269836    0.10500105864208546    0.12406698572041897    0.14696169504747342    
  0.1733747248151366    0.20253997035409307    0.23326231637506292    0.2640248692786435    0.29325451679567555    
  0.3197740878600876    0.34320566387679563    0.3639271729672113    0.38244162949595906    0.3985227956379512    
  0.41076836538890404    0.4169638027529674    0.4150852063270837    0.40428012288659093    0.3852092344253941    
  0.35969267906488583    0.3300888466849799    0.2987848880663067    0.26785304149382494    0.2388152991115876    
  0.21256420988429492    0.18948053316066688    0.16962876455478276    0.15286894169473783    0.1388760932248509    
  0.1271755803615251    0.1172415209061842    0.10860271384868073    0.10089880575440732    0.09388655282556176    
  0.08742188027600485    0.0814359274223008    0.0759146927621233    0.06202662111351088    0.05811596992218661    
  0.054889925855499684    0.05241292511242637    0.05079518376299999    0.05019159690264298    0.05080157919182347    
  0.052880996502332966    0.05675753253131868    0.06282369162011897    0.07150893028387986    0.08327124968543646    
  0.09861694378321527    0.11807009818499319    0.1420067182085092    0.17039034677036602    0.20253997035409294    
  0.2370076407479141    0.27159691520676066    0.30367526193478084    0.33097091289694264    0.35263793335620625    
  0.3698331907408853    0.38515580152640033    0.40111479729384464    0.4184784918911351    0.43540045365113306    
  0.4478506201820535    0.45129775110177683    0.4428042037370241    0.4222561867187593    0.39206684710104944    
  0.3558926465254241    0.3173932176142927    0.2795353355624347    0.244334065260367    0.21285860126244505    
  0.1854566185685798    0.1620768301231796    0.1424814944169509    0.1262867322735551    0.11296608636428507    
  0.10193174474224617    0.09265317577954865    0.084722977417465    0.07785444607276618    0.07185407452162873    
  0.06659977586947355    0.06202662111351088    0.05171203875937756    0.048706091763737656    0.0464772818948817    
  0.04507950332502354    0.04462158502243567    0.045264064350304056    0.04722448998965889    0.05080157919182352    
  0.056393781915981295    0.06447989301711667    0.07558297815158568    0.09027374312955375    0.10919344864233545    
  0.13297117565225852    0.16195432602512982    0.1958306053452656    0.23326231637506292    0.27159691520676077    
  0.30689194880875503    0.3348037568041344    0.3525234079562981    0.3607040596971611    0.36370391695568727    
  0.3676992214892763    0.3779293240601709    0.3965027404199737    0.42128535718722415    0.44609801023130896    
  0.46268656644694145    0.4641955538141193    0.4482295414355773    0.41734389277392175    0.3769573600071362    
  0.33271492188083707    0.2889707390375992    0.24846570827403672    0.21255446331685804    0.18160733029529957    
  0.15545959389587574    0.1337383908222877    0.11596380566576771    0.10154257986843594    0.08982327348668179    
  0.08021456325496704    0.07226054655572442    0.06563419492953743    0.06010032145120741    0.055493917506812526    
  0.05171203875937756    0.044192544217474074    0.04191400508415849    0.040482346721969806    0.03995342323546018    
  0.0404448039645315    0.042132605574519956    0.045264064350304285    0.050191596902643194    0.05739019958265771    
  0.0674268174463134    0.08092406362651218    0.09857619599891898    0.1211547325162883    0.149344229329691    
  0.1833524852075685    0.2223839869137281    0.2640248692786435    0.30367526193478095    0.3348037568041344    
  0.3511546553187111    0.35050650371204467    0.3370777480424531    0.32002376308965264    0.30923981764293706    
  0.3118724300001621    0.33089135083588417    0.36447824590471406    0.40541792371371344    0.44195806833490414    
  0.4619037125646527    0.45836126010584816    0.43257526357750203    0.39164911640406    0.3439104157884765    
  0.2957752303052028    0.25107824232043474    0.21162635741445054    0.1779055374482651    0.149682557056077    
  0.12644706639127035    0.10760346679901202    0.09248524807310503    0.08038505655484741    0.070659022911863    
  0.06280716792210682    0.056467525296888206    0.05137206469844363    0.04732350222523947    0.044192544217474074    
  0.038862351128421256    0.03716850749948044    0.03638102118657061    0.036565426983487664    0.037854041716451126    
  0.04044480396453143    0.04462158502243586    0.050795183763000226    0.05951716321903301    0.0714417573190941    
  0.08729519196502634    0.10789767705494006    0.13412921691462207    0.16666520421777017    0.2054542579501582    
  0.2489798633180155    0.29325451679567555    0.33097091289694275    0.35252340795629816    0.35050650371204456    
  0.3255407229722213    0.2876862708145027    0.25118370471725004    0.22765908331310017    0.22356733411060117    
  0.2414230169988754    0.28056945805135186    0.3353010047109536    0.3928103118798905    0.43590348017273356    
  0.45125439981916265    0.43644164494055987    0.39915590833102943    0.35059183388261256    0.2998184226125421    
  0.25218345881008775    0.21014412810803826    0.17440419827708542    0.14472636928833715    0.12048983658956051    
  0.10098480562518619    0.08547331410453013    0.07320385702239564    0.06349355045800821    0.05580742584661603    
  0.04975606764047849    0.04504814721343475    0.04146514801035436    0.038862351128421256    0.03529134711041682    
  0.03406864320012918    0.03380936941027394    0.034591775266404376    0.0365654269834878    0.03995342323546033    
  0.045079503325023945    0.052412925112426914    0.06257792333583846    0.07631192488132275    0.09444198521095576    
  0.11790279581441708    0.14764762866504988    0.18428037666697422    0.22739260573925152    0.27454419726410045    
  0.3197740878600875    0.3526379333562063    0.3607040596971611    0.3370777480424531    0.28768627081450265    
  0.2295554892460257    0.1804056507579763    0.15037406103909068    0.14248361446084257    0.15754960943322438    
  0.19653583875015837    0.2575570794988573    0.3301788273691985    0.39458847672799985    0.43072723560052506    
  0.43039110607688646    0.4000173431061811    0.3530407220699296    0.30132603381484657    0.25199737735978894    
  0.20831099501759995    0.17126305992491708    0.14066967393315727    0.11584302704336123    0.09598215414779977    
  0.08029057266963237    0.06798659048135038    0.058362524600206356    0.05085877237756755    0.04506649130258433    
  0.040680497168444726    0.037472095305298665    0.03529134711041682    0.0331808786598602    0.032338487690007356    
  0.03251765209634703    0.03380936941027396    0.03638102118657082    0.040482346721970014    0.04647728189488207    
  0.054889925855500295    0.0664094404173423    0.08184645204756659    0.10211455210237493    0.12823673034503308    
  0.16119961168532487    0.2014936232744141    0.24831220408181023    0.2982221590649947    0.3432056638767955    
  0.36983319074088533    0.36370391695568716    0.3200237630896525    0.25118370471725004    0.18040565075797632    
  0.12643474571294247    0.09567161038543674    0.0867459546344727    0.09846998564203228    0.13314459953976285    
  0.19311630743122438    0.27236201462739684    0.35134525995494337    0.40493264515032085    0.4186803930588198    
  0.3963026470174962    0.3523331161084831    0.3009632242017104    0.2509995297708418    0.20649824437600417    
  0.1687612785146814    0.13768965119152762    0.1125728794473487    0.09255621422575704    0.07680823662684086    
  0.06453322926837658    0.055011906637610554    0.04766981956207575    0.042086022543627276    0.03794935219952607    
  0.03503004426145055    0.0331808786598602    0.032329441651681654    0.031793047698711926    0.03233848769000745    
  0.034068643200129346    0.037168507499480724    0.04191400508415875    0.04870609176373822    0.05811596992218731    
  0.07088560257376196    0.08788185170496128    0.11007911025633328    0.13855235302500915    0.17428605391419894    
  0.21764633830180474    0.2674685911971903    0.31946647019606755    0.3639271729672112    0.3851558015264004    
  0.3676992214892763    0.309239817642937    0.22765908331310009    0.15037406103909068    0.09567161038543671    
  0.06629495851163472    0.05748499524471069    0.06657607132117231    0.0965127246385591    0.1525079965043736    
  0.23245930766413123    0.3185442244505333    0.38304461234352183    0.4068955527262362    0.3910347209080679    
  0.35011345188943704    0.2997300435236992    0.24987175646064128    0.2051966465626801    0.16724987820997403    
  0.13601737825595422    0.1108000364313724    0.09072948173227816    0.07496746677977012    0.06272087909184718    
  0.05327080378534366    0.046037541138188795    0.04059517772566834    0.03663245387093769    0.033924025538377874    
  0.032329441651681654    0.0326230026179591    0.03232944165168176    0.03318087865986043    0.03529134711041706    
  0.03886235112842158    0.0441925442174745    0.05171203875937831    0.0620266211135117    0.07591469276212433    
  0.09427693275906664    0.11811523231933153    0.14851586073228729    0.18643382933210614    0.23212941792525374    
  0.2841979064441223    0.3378482920091651    0.382441629495959    0.40111479729384486    0.37792932406017093    
  0.3118724300001621    0.22356733411060123    0.14248361446084262    0.08674595463447274    0.05748499524471076    
  0.04844935212352877    0.05623024114036279    0.08378740438706964    0.13724661172946703    0.21612139026362184    
  0.3037221977605497    0.37183077897839134    0.39971676129495365    0.38697945475051754    0.347965402675816    
  0.29860290678406765    0.24926982569789272    0.2048626024336    0.16704434801323378    0.13586065190302765    
  0.11064482871521882    0.09054998640352872    0.07475761712556461    0.06249222736974511    0.05304615637697557    
  0.0458446422951566    0.04046469849674804    0.03659950992801334    0.034030098399575104    0.0326230026179591    
  0.0340300983995751    0.03392402553837805    0.03503004426145078    0.03747209530529897    0.04146514801035485    
  0.047323502225239955    0.055493917506813234    0.06659977586947438    0.08143592742230196    0.10091089617908945    
  0.12601663931138274    0.15780790065317163    0.19718766909169008    0.244345075998773    0.29779702981488343    
  0.352713954826122    0.3985227956379512    0.41847849189113523    0.39650274041997363    0.3308913508358841    