#     DFTpy    
  CRYSTAL 
    
  PRIMVEC    
  4.793379310344831    0.0    0.0    
  0.0    4.793379310344831    0.0    
  0.0    0.0    4.793379310344831    
  PRIMCOORD    
  7    1    
  Si    0.0    0.0    0.0    
  Si    0.0    2.3966896551724104    2.3966896551724104    
  Si    1.1983448275862103    3.5950344827586207    3.5950344827586207    
  Si    2.3966896551724104    0.0    2.3966896551724104    
  Si    3.5950344827586207    1.1983448275862103    3.5950344827586207    
  Si    2.3966896551724104    2.3966896551724104    0.0    
  Si    3.5950344827586207    3.5950344827586207    1.1983448275862103    
  BEGIN_BLOCK_DATAGRID_3D    
  3d_datagrid_density    
  BEGIN_DATAGRID_3D#0    
  49    49    49    
  0.0    0.0    0.0    
  4.793379328224226    0.0    0.0    
  0.0    4.793379328224226    0.0    
  0.0    0.0    4.793379328224226    
  0.047921188441679495    0.05568704071894896    0.08128335172841025    0.13045554952863045    0.20474996975599688    
  0.2929932955005548    0.371508709823862    0.4172038589772691    0.421762192427807    0.3931908296298165    
  0.34643681797466463    0.2943206578289225    0.2445255625597359    0.20061323115266652    0.16370400667641324    
  0.1336212723984504    0.10962617676718864    0.09086908310271744    0.07655140290432581    0.06592386845835235    
  0.05830045783453974    0.05312193789859168    0.04999347495422175    0.048665692122821375    0.04900279698482239    
  0.050972138203920284    0.05464251947963745    0.06017868966920519    0.06785203008087715    0.07807687709172917    
  0.09142638588338385    0.10857888519355981    0.13023496255363595    0.15709196966601324    0.18983740218715572    
  0.22897383487173045    0.2743622335318396    0.3245096641548267    0.37547287468944135    0.41926441578378054    
  0.4430288596538618    0.43233843198220784    0.3803509434123251    0.296750936019923    0.20542515656592167    
  0.12989395011273266    0.08059490333260799    0.05529827013698416    0.047921188441679495    0.055687040718949    
  0.06295299159301036    0.08821520345076754    0.13604587292279408    0.20668760468807681    0.28860707964973364    
  0.35950220935723215    0.3986671204631279    0.3995016155204264    0.37018568912324656    0.3247868245560919    
  0.275095121567081    0.22807659655162218    0.1869005374095252    0.15249626750888098    0.12460896190408523    
  0.10248529924534232    0.08529264525947937    0.07226309722924852    0.06268535858198558    0.05591383631524658    
  0.05142572052952743    0.04885495988201266    0.04797433717200065    0.04866569212282146    0.050909814478243436    
  0.05478454664137308    0.06046043539941832    0.06821350437988805    0.07846347838080793    0.09179176727342486    
  0.10889020905230105    0.1304788460462657    0.1572790610946623    0.19000773306593474    0.22920807728861678    
  0.2748011281843094    0.32538679017454636    0.3771808128268848    0.42245726554515556    0.4486509984024811    
  0.4413348745833748    0.3929659029978195    0.3118996150244727    0.22094987119530354    0.14374725067902958    
  0.09189193706401579    0.0643749873481926    0.055687040718949    0.08128335172841017    0.08821520345076751    
  0.11433302347357258    0.16172185639481096    0.22766571188764106    0.2994506395556943    0.3570685295205176    
  0.38423952434111436    0.37764734552530016    0.34590082840629827    0.30155661458916705    0.25463768888335014    
  0.2109290096522418    0.17300099309627706    0.14152286123789276    0.11615262856155642    0.09613875598773863    
  0.08068788673856919    0.06908165590820536    0.060661549195296184    0.054834831731644204    0.05112454659111678    
  0.04919881845957604    0.048854959882012695    0.049993474954221906    0.05260844876563225    0.05678465631553055    
  0.06269422160003821    0.07061170842039162    0.08095418872021634    0.09430184008791465    0.11135025324197187    
  0.1328283681700125    0.15946788163409575    0.19200030401962034    0.23100548892461067    0.2764900821427388    
  0.3272353284886565    0.379849852243302    0.42737652594726916    0.4583157820155742    0.45882756415082554    
  0.42019798635316274    0.3475476591557291    0.26034247248863673    0.18147818602724752    0.12485799022996787    
  0.09264097538982415    0.08128335172841017    0.13045554952863045    0.13604587292279413    0.16172185639481104    
  0.20621944326651642    0.26338210459324096    0.31987275541954047    0.35932082941776716    0.37102685764074766    
  0.3552444476312433    0.3205788991886552    0.27746782788553087    0.2337333109833625    0.19376298991882754    
  0.15944548613182774    0.13117044101313524    0.10851958694533877    0.09076570147262432    0.07717546723163068    
  0.06709411831776065    0.059925385278749244    0.055136698198376966    0.05230180012773424    0.05112454659111704    
  0.05142572052952775    0.05312193789859208    0.056216698463727746    0.060796417478762486    0.06702871773607387    
  0.0751803024443126    0.08565826507371227    0.09903293825811071    0.11599469011599911    0.13727170784343895    
  0.1635919716769856    0.19568111798450943    0.23413601890191682    0.27904652244936917    0.32941421277561067    
  0.38237526273108796    0.43208126089075344    0.46873601510028146    0.47986563884974737    0.4559195858766806    
  0.39799296730298817    0.32036752099691845    0.24348021944505177    0.18313300067569827    0.1455781938018359    
  0.13045554952863045    0.2047499697559968    0.20668760468807684    0.22766571188764112    0.263382104593241    
  0.3053798822477478    0.3414113576535482    0.35987217382864334    0.3554665614754403    0.3310219173996663    
  0.2942443665740059    0.25305006864490237    0.21299986635926071    0.17712390198555175    0.14666488752853257    
  0.12176079737666501    0.10194692169315983    0.08654754865944746    0.07490681456809258    0.0664417585230718    
  0.060622304087707156    0.05697871387066674    0.05513669819837695    0.05483483173164444    0.05591383631524685    
  0.058300457834540145    0.06199944403292231    0.06708961146176656    0.07372550198335856    0.08215862090661852    
  0.09277851444341909    0.10613652080719232    0.12290818404239473    0.14381188455107247    0.16955910697147908    
  0.20084583080460053    0.23825190537336766    0.28191913222179116    0.33105535685841736    0.3833421004453416    
  0.43414554148672657    0.4757140991488785    0.4976829062157551    0.4906925662958739    0.45243566456405726    
  0.3913458594604255    0.32345227790812536    0.26445556880358484    0.22386180103861864    0.2047499697559968    
  0.2929932955005548    0.2886070796497337    0.29945063955569434    0.31987275541954063    0.3414113576535482    
  0.3546874061165746    0.35295168028720053    0.33487803760384377    0.30424939467237455    0.26708317066207615    
  0.22878141837069524    0.19293009994912053    0.16142721709813973    0.13498325463864488    0.1135438512024192    
  0.09663875618208954    0.08366984947812124    0.07406959629792846    0.06732859390465584    0.06298211894125089    
  0.06062230408770739    0.05992538527874939    0.06066154919529663    0.06268535858198616    0.06592386845835303    
  0.07037044338981852    0.07608334272763458    0.08319301164016982    0.09192661152225584    0.10264639564175468    
  0.11587266454582336    0.13225407800527395    0.15249073661140986    0.17726964420730454    0.20723806501509567    
  0.24292149029322999    0.28446677521400127    0.3312404445709476    0.3814011498175867    0.43141962454456373    
  0.47554311912139335    0.5058753160543955    0.5143645772077539    0.4968899489350717    0.4568879513012911    
  0.4049759714340986    0.35427373762826503    0.3151643621391034    0.2929932955005548    0.3715087098238621    
  0.35950220935723215    0.3570685295205176    0.35932082941776716    0.35987217382864334    0.3529516802872005    
  0.33560021897336295    0.3085530291447315    0.27520851347543174    0.239656901461866    0.2052135297830989    
  0.1739806175179039    0.14702501377286128    0.12466811501849108    0.10673614229808945    0.0927952219593477    
  0.0823430639227501    0.07490213195476778    0.07003202724703805    0.06732859390465594    0.06644175852307203    
  0.06709411831776102    0.06908165590820602    0.07226309722924922    0.07655140290432656    0.08191160566056564    
  0.08836556844174662    0.09600666927171524    0.1050260198068423    0.11574499568576538    0.12863648644788203    
  0.14430727962291798    0.1634323380227099    0.18667548588983013    0.2146317437348204    0.24774856205736634    
  0.2861350207326842    0.32926165658147877    0.3756638884843815    0.42268704898132603    0.46621808281612404    
  0.5006500898059264    0.5198301536121519    0.519439499209851    0.4997402192911277    0.4664533194033707    
  0.4286536431070685    0.39511314673771103    0.3715087098238621    0.4172038589772691    0.3986671204631278    
  0.38423952434111436    0.3710268576407476    0.3554665614754403    0.3348780376038438    0.3085530291447316    
  0.2778050106799502    0.24507789529832524    0.2128505041019131    0.18298735164148192    0.15661657483595803    
  0.13425718923822486    0.11598047235136766    0.10156527400784365    0.09064717101786172    0.08282505179719948    
  0.0777035804774914    0.07490213195476805    0.07406959629792885    0.07490681456809305    0.07717546723163121    
  0.08068788673857008    0.08529264525948044    0.0908690831027186    0.09733301623602195    0.10465218492716839    
  0.11286880319895887    0.12212395226414098    0.13268099303936984    0.14494567433054714    0.15946617678425382    
  0.17688747068996286    0.19786196868643502    0.22295156477847994    0.25253164851679705    0.28665469383666553    
  0.3248538389147787    0.3659507987629863    0.40792825971058866    0.4478409957657555    0.48182144469310206    
  0.5055251419014984    0.5153705219452184    0.5102421898200901    0.4925046663863608    0.4673466582953694    
  0.44072860158525673    0.4172038589772691    0.42176219242780694    0.3995016155204264    0.3776473455253001    
  0.3552444476312433    0.33102191739966624    0.3042493946723746    0.27520851347543174    0.24507789529832524    
  0.21541577710711382    0.18763627640969555    0.16273832571848737    0.1412769360258431    0.12344586592673003    
  0.1091850469964914    0.09828491057414739    0.09046683186905209    0.08542252791467585    0.08282505179719962    
  0.08234306392275058    0.08366984947812182    0.08654754865944828    0.09076570147262521    0.09613875598773981    
  0.1024852992453436    0.10962617676719    0.11740347992476007    0.1257118146231052    0.13452804499400314    
  0.14392909678674312    0.15410345777524678    0.16537172880765863    0.17820898673112937    0.1932269780161801    
  0.21108386788980163    0.2323464154169183    0.25735924933650894    0.28613789552966995    0.31826326669398736    
  0.3527789155489507    0.38812519301302484    0.42212627395113766    0.4520539538695833    0.47489828051122124    
  0.48801322132462654    0.49004141585580985    0.4816060408226865    0.46520376256973317    0.44424239023151524    
  0.42176219242780694    0.3931908296298165    0.37018568912324656    0.3459008284062983    0.3205788991886551    
  0.29424436657400593    0.26708317066207615    0.23965690146186602    0.2128505041019131    0.1876362764096956    
  0.1648315994380008    0.14497103800138986    0.1283019825179909    0.11485338607415492    0.10452445660961775    
  0.09715333590331403    0.09254485687688463    0.09046683186905238    0.09064717101786227    0.09279522195934843    
  0.09663875618209049    0.10194692169316096    0.10851958694533997    0.11615262856155809    0.12460896190408692    
  0.13362127239845223    0.14293006078572798    0.15233596310831532    0.16173607279599736    0.17113126921988578    
  0.18062481205831735    0.19044530256190614    0.20099197766270158    0.21284596351036517    0.22668790015781753    
  0.24313220693391113    0.2625576439729529    0.28500142976399045    0.310112236703313    0.3371192713599108    
  0.3648038903845094    0.39150355285921146    0.41519753546354743    0.43373185593813396    0.44521608645260435    
  0.4485132703122826    0.44359752906467453    0.43154493025450275    0.4141234746946006    0.3931908296298165    
  0.3464368179746646    0.3247868245560919    0.3015566145891671    0.2774678278855309    0.25305006864490237    
  0.22878141837069524    0.20521352978309898    0.18298735164148194    0.16273832571848734    0.14497103800138986    
  0.12998598664334896    0.11788762557798164    0.10864937954237269    0.10218672397363185    0.09839663151598452    
  0.09715333590331439    0.09828491057414794    0.1015652740078445    0.10673614229809053    0.11354385120242046    
  0.12176079737666658    0.13117044101313693    0.14152286123789484    0.1524962675088831    0.1637040066764155    
  0.17475514597739628    0.18533194072795683    0.19523384216395573    0.20437468593226085    0.2127718391776118    
  0.22057494398953606    0.2281298079386372    0.23600887178454505    0.2449362457323766    0.2556099832063631    
  0.26850752776572895    0.28376589954934933    0.30115322602347283    0.32007808912973673    0.3395908699623342    
  0.35839611648200453    0.3749397101962792    0.3876144037887055    0.3950560803919774    0.39642827999893054    
  0.39157261098118357    0.38096769403247116    0.3655420952437445    0.3464368179746646    0.2943206578289225    
  0.2750951215670808    0.2546376888833501    0.23373331098336245    0.2129998663592607    0.19293009994912041    
  0.17398061751790397    0.1566165748359581    0.14127693602584313    0.12830198251799085    0.1178876255779816    
  0.11009704485309856    0.104913360298255    0.10229296948753518    0.10218672397363208    0.10452445660961837    
  0.10918504699649238    0.11598047235136881    0.12466811501849256    0.1349832546386466    0.14666488752853463    
  0.15944548613182993    0.17300099309627953    0.1869005374095278    0.2006132311526692    0.21358893860047537    
  0.22536195523827096    0.23560698667583937    0.24413423383850633    0.2508799096760957    0.25594761056705    
  0.25968415306185033    0.26270949716831976    0.2658333181625522    0.2698710921820017    0.275445605575638    
  0.28286028322234347    0.2920643187085769    0.302665006556252    0.3139425667713356    0.32487872435927645    
  0.33425290300926536    0.3408344544256364    0.34362212579527274    0.34202569322562243    0.3359120919858956    
  0.32553345366639747    0.3114235253493593    0.2943206578289225    0.2445255625597359    0.22807659655162207    
  0.21092900965224187    0.19376298991882757    0.17712390198555178    0.1614272170981397    0.14702501377286137    
  0.13425718923822486    0.12344586592673006    0.11485338607415492    0.10864937954237272    0.10491336029825507    
  0.10366736237766841    0.10491336029825532    0.10864937954237328    0.11485338607415585    0.12344586592673124    
  0.1342571892382263    0.14702501377286323    0.16142721709814192    0.17712390198555428    0.19376298991883023    
  0.21092900965224473    0.22807659655162513    0.24452556255973903    0.25954916224625346    0.2724989663979962    
  0.28288148878292924    0.2903710613417498    0.2948227250420259    0.2963367045579067    0.2953388547185779    
  0.2925865196898123    0.2890499725999713    0.2857107579440684    0.283369970983852    0.2825329779859426    
  0.2833699709838517    0.28571075794406775    0.2890499725999704    0.2925865196898109    0.29533885471857624    
  0.2963367045579046    0.2948227250420235    0.29037106134174706    0.2828814887829261    0.27249896639799304    
  0.25954916224625024    0.2445255625597359    0.20061323115266655    0.18690053740952522    0.17300099309627723    
  0.1594454861318278    0.14666488752853263    0.13498325463864483    0.12466811501849115    0.11598047235136773    
  0.10918504699649154    0.10452445660961775    0.10218672397363185    0.10229296948753523    0.10491336029825533    
  0.11009704485309911    0.11788762557798246    0.12830198251799213    0.14127693602584468    0.15661657483595995    
  0.17398061751790622    0.19293009994912308    0.21299986635926357    0.23373331098336558    0.2546376888833535    
  0.27509512156708427    0.29432065782892597    0.31142352534936274    0.3255334536664009    0.3359120919858989    
  0.34202569322562537    0.3436221257952752    0.34083445442563837    0.33425290300926686    0.32487872435927756    
  0.3139425667713363    0.3026650065562524    0.2920643187085768    0.28286028322234313    0.27544560557563735    
  0.2698710921820008    0.26583331816255085    0.2627094971683182    0.2596841530618486    0.2559476105670479    
  0.25087990967609336    0.2441342338385039    0.23560698667583674    0.22536195523826835    0.21358893860047262    
  0.20061323115266655    0.16370400667641327    0.15249626750888098    0.14152286123789287    0.13117044101313524    
  0.12176079737666505    0.11354385120241922    0.10673614229808955    0.10156527400784378    0.09828491057414744    
  0.0971533359033141    0.09839663151598457    0.10218672397363215    0.1086493795423733    0.11788762557798253    
  0.12998598664335018    0.1449710380013915    0.16273832571848934    0.18298735164148425    0.20521352978310167    
  0.22878141837069824    0.2530500686449056    0.27746782788553426    0.3015566145891707    0.3247868245560955    
  0.3464368179746683    0.36554209524374803    0.38096769403247455    0.3915726109811867    0.39642827999893343    
  0.39505608039197965    0.3876144037887073    0.3749397101962804    0.3583961164820053    0.33959086996233445    
  0.3200780891297367    0.3011532260234724    0.28376589954934867    0.2685075277657279    0.25560998320636186    
  0.24493624573237516    0.23600887178454322    0.22812980793863555    0.2205749439895342    0.21277183917760975    
  0.2043746859322586    0.1952338421639534    0.1853319407279545    0.17475514597739403    0.16370400667641327    
  0.13362127239845042    0.12460896190408521    0.11615262856155656    0.10851958694533874    0.10194692169315987    
  0.0966387561820896    0.09279522195934778    0.09064717101786182    0.09046683186905216    0.09254485687688459    
  0.09715333590331432    0.10452445660961834    0.11485338607415578    0.12830198251799207    0.14497103800139144    
  0.16483159943800277    0.18763627640969802    0.21285050410191592    0.23965690146186913    0.2670831706620793    
  0.29424436657400926    0.32057889918865845    0.3459008284063016    0.3701856891232498    0.39319082962981966    
  0.4141234746946036    0.43154493025450574    0.44359752906467736    0.44851327031228505    0.44521608645260624    
  0.4337318559381354    0.4151975354635481    0.3915035528592118    0.36480389038450933    0.3371192713599102    
  0.31011223670331206    0.28500142976398934    0.26255764397295156    0.24313220693390977    0.22668790015781592    
  0.2128459635103635    0.20099197766269972    0.19044530256190437    0.18062481205831551    0.17113126921988386    
  0.16173607279599533    0.15233596310831335    0.1429300607857261    0.13362127239845042    0.1096261767671886    
  0.10248529924534232    0.0961387559877387    0.09076570147262422    0.08654754865944742    0.08366984947812134    
  0.0823430639227501    0.08282505179719941    0.08542252791467593    0.09046683186905233    0.09828491057414795    
  0.10918504699649235    0.12344586592673124    0.1412769360258446    0.16273832571848934    0.187636276409698    
  0.2154157771071166    0.24507789529832819    0.2752085134754349    0.3042493946723777    0.33102191739966913    
  0.35524444763124574    0.3776473455253022    0.3995016155204283    0.42176219242780877    0.4442423902315173    
  0.4652037625697351    0.48160604082268843    0.4900414158558116    0.48801322132462804    0.47489828051122207    
  0.4520539538695837    0.42212627395113744    0.38812519301302423    0.35277891554894975    0.3182632666939862    
  0.28613789552966856    0.2573592493365074    0.23234641541691667    0.2110838678898001    0.19322697801617844    
  0.1782089867311277    0.16537172880765688    0.15410345777524526    0.14392909678674148    0.1345280449940015    
  0.12571181462310366    0.11740347992475857    0.1096261767671886    0.09086908310271734    0.08529264525947937    
  0.08068788673856923    0.07717546723163064    0.07490681456809248    0.07406959629792846    0.07490213195476779    
  0.07770358047749137    0.08282505179719973    0.09064717101786224    0.10156527400784446    0.1159804723513689    
  0.13425718923822635    0.1566165748359599    0.18298735164148425    0.21285050410191597    0.24507789529832819    
  0.27780501067995333    0.3085530291447345    0.33487803760384616    0.3554665614754419    0.37102685764074844    
  0.3842395243411146    0.39866712046312763    0.4172038589772688    0.4407286015852568    0.46734665829537    
  0.4925046663863616    0.5102421898200908    0.515370521945219    0.5055251419014989    0.4818214446931019    
  0.4478409957657548    0.4079282597105875    0.3659507987629848    0.3248538389147771    0.28665469383666375    
  0.2525316485167954    0.2229515647784782    0.1978619686864333    0.17688747068996133    0.15946617678425234    
  0.14494567433054575    0.13268099303936856    0.12212395226413959    0.1128688031989574    0.1046521849271671    
  0.09733301623602086    0.09086908310271734    0.07655140290432577    0.07226309722924847    0.06908165590820543    
  0.0670941183177606    0.06644175852307183    0.06732859390465577    0.0700320272470381    0.07490213195476793    
  0.08234306392275058    0.09279522195934833    0.1067361422980905    0.12466811501849256    0.14702501377286314    
  0.17398061751790617    0.20521352978310162    0.23965690146186908    0.2752085134754349    0.30855302914473437    
  0.3356002189733652    0.35295168028720164    0.3598721738286431    0.35932082941776566    0.3570685295205152    
  0.3595022093572295    0.3715087098238597    0.3951131467377092    0.4286536431070674    0.4664533194033703    
  0.4997402192911277    0.519439499209851    0.5198301536121517    0.5006500898059257    0.4662180828161228    
  0.4226870489813244    0.3756638884843797    0.3292616565814769    0.2861350207326822    0.24774856205736448    
  0.21463174373481844    0.18667548588982844    0.16343233802270835    0.1443072796229164    0.1286364864478807    
  0.11574499568576427    0.1050260198068411    0.09600666927171411    0.08836556844174545    0.0819116056605648    
  0.07655140290432577    0.06592386845835235    0.06268535858198558    0.06066154919529616    0.0599253852787492    
  0.060622304087707225    0.06298211894125079    0.06732859390465597    0.07406959629792884    0.08366984947812192    
  0.0966387561820904    0.11354385120242048    0.13498325463864658    0.1614272170981419    0.19293009994912302    
  0.22878141837069818    0.26708317066207937    0.30424939467237766    0.3348780376038462    0.35295168028720164    
  0.354687406116574    0.34141135765354585    0.3198727554195369    0.29945063955569007    0.2886070796497294    
  0.2929932955005511    0.3151643621391006    0.354273737628263    0.4049759714340975    0.4568879513012906    
  0.49688994893507155    0.5143645772077533    0.5058753160543944    0.4755431191213918    0.43141962454456173    
  0.3814011498175845    0.3312404445709452    0.28446677521399905    0.24292149029322782    0.20723806501509381    
  0.17726964420730287    0.15249073661140838    0.13225407800527264    0.11587266454582205    0.1026463956417537    
  0.09192661152225487    0.08319301164016882    0.07608334272763367    0.07037044338981793    0.06592386845835235    
  0.0583004578345397    0.05591383631524656    0.05483483173164425    0.05513669819837693    0.05697871387066672    
  0.060622304087707295    0.06644175852307213    0.07490681456809299    0.08654754865944828    0.10194692169316098    
  0.1217607973766666    0.1466648875285346    0.17712390198555428    0.21299986635926357    0.25305006864490553    
  0.2942443665740094    0.331021917399669    0.35546656147544187    0.35987217382864317    0.3414113576535458    
  0.30537988224774376    0.2633821045932359    0.22766571188763612    0.20668760468807218    0.20474996975599302    
  0.22386180103861586    0.264455568803583    0.3234522779081244    0.3913458594604253    0.4524356645640573    
  0.49069256629587343    0.497682906215754    0.47571409914887675    0.43414554148672424    0.3833421004453392    
  0.33105535685841486    0.2819191322217887    0.23825190537336555    0.20084583080459867    0.1695591069714773    
  0.143811884551071    0.12290818404239347    0.1061365208071912    0.09277851444341823    0.08215862090661767    
  0.07372550198335776    0.06708961146176581    0.06199944403292179    0.0583004578345397    0.0531219378985918    
  0.05142572052952745    0.05112454659111693    0.05230180012773438    0.05513669819837703    0.05992538527874939    
  0.06709411831776106    0.07717546723163139    0.09076570147262529    0.10851958694534003    0.13117044101313696    
  0.15944548613183004    0.1937629899188303    0.23373331098336564    0.2774678278855343    0.3205788991886585    
  0.3552444476312458    0.3710268576407485    0.3593208294177658    0.319872755419537    0.26338210459323597    
  0.20621944326651126    0.16172185639480643    0.13604587292279033    0.1304555495286275    0.14557819380183393    
  0.1831330006756972    0.24348021944505158    0.3203675209969191    0.39799296730298905    0.4559195858766809    
  0.4798656388497466    0.4687360151002798    0.4320812608907509    0.3823752627310853    0.32941421277560806    
  0.2790465224493667    0.23413601890191457    0.19568111798450755    0.1635919716769839    0.13727170784343762    
  0.11599469011599789    0.09903293825810977    0.08565826507371152    0.07518030244431197    0.06702871773607322    
  0.06079641747876192    0.05621669846372738    0.0531219378985918    0.0499934749542217    0.04885495988201262    
  0.049198818459576035    0.05112454659111704    0.05483483173164441    0.06066154919529656    0.06908165590820595    
  0.08068788673857008    0.09613875598773988    0.11615262856155799    0.1415228612378947    0.17300099309627956    
  0.2109290096522448    0.2546376888833534    0.30155661458917055    0.3459008284063016    0.3776473455253022    
  0.3842395243411144    0.3570685295205153    0.29945063955569007    0.22766571188763607    0.16172185639480635    
  0.114333023473569    0.08821520345076492    0.0812833517284084    0.09264097538982317    0.1248579902299678    
  0.18147818602724838    0.26034247248863857    0.3475476591557309    0.42019798635316397    0.45882756415082543    
  0.45831578201557294    0.4273765259472668    0.3798498522432993    0.3272353284886539    0.2764900821427363    
  0.23100548892460848    0.19200030401961843    0.15946788163409417    0.13282836817001115    0.11135025324197075    
  0.09430184008791362    0.08095418872021574    0.07061170842039109    0.06269422160003763    0.056784656315530015    
  0.05260844876563212    0.0499934749542217    0.048665692122821416    0.047974337172000635    0.04885495988201274    
  0.051425720529527735    0.055913836315246865    0.06268535858198607    0.07226309722924917    0.08529264525948049    
  0.10248529924534362    0.12460896190408689    0.15249626750888307    0.18690053740952786    0.2280765965516252    
  0.27509512156708427    0.3247868245560955    0.37018568912324984    0.39950161552042834    0.3986671204631277    
  0.3595022093572296    0.2886070796497295    0.20668760468807224    0.13604587292279033    0.08821520345076495    
  0.06295299159300881    0.055687040718948144    0.06437498734819264    0.09189193706401666    0.14374725067903157    
  0.22094987119530649    0.3118996150244758    0.392965902997822    0.44133487458337556    0.4486509984024802    
  0.4224572655451535    0.37718081282688226    0.3253867901745437    0.27480112818430696    0.2292080772886146    
  0.19000773306593297    0.1572790610946608    0.13047884604626434    0.10889020905229993    0.0917917672734241    
  0.07846347838080735    0.06821350437988755    0.060460435399417874    0.054784546641372674    0.05090981447824331    
  0.048665692122821416    0.04900279698482245    0.04866569212282142    0.04999347495422196    0.05312193789859206    
  0.058300457834540166    0.06592386845835302    0.07655140290432666    0.09086908310271857    0.10962617676719004    
  0.13362127239845223    0.16370400667641546    0.20061323115266924    0.24452556255973912    0.29432065782892597    
  0.34643681797466824    0.39319082962981977    0.4217621924278088    0.4172038589772688    0.37150870982385986    
  0.2929932955005511    0.20474996975599302    0.1304555495286275    0.08128335172840845    0.055687040718948165    
  0.047921188441679426    0.055298270136984844    0.08059490333260963    0.1298939501127356    0.20542515656592572    
  0.29675093601992714    0.38035094341232834    0.4323384319822091    0.44302885965386124    0.41926441578377865    
  0.37547287468943885    0.32450966415482413    0.27436223353183714    0.22897383487172834    0.18983740218715406    
  0.15709196966601172    0.13023496255363476    0.10857888519355877    0.09142638588338316    0.07807687709172874    
  0.06785203008087677    0.06017868966920484    0.05464251947963715    0.0509721382039202    0.04900279698482245    
  0.05097213820392032    0.050909814478243484    0.05260844876563233    0.0562166984637277    0.06199944403292233    
  0.07037044338981854    0.08191160566056578    0.09733301623602209    0.11740347992476013    0.142930060785728    
  0.1747551459773963    0.21358893860047548    0.2595491622462535    0.31142352534936285    0.365542095243748    
  0.41412347469460364    0.4442423902315173    0.4407286015852568    0.39511314673770925    0.3151643621391005    
  0.22386180103861572    0.14557819380183393    0.09264097538982324    0.06437498734819257    0.05529827013698484    