#     DFTpy    
  CRYSTAL 
    
  PRIMVEC    
  5.242758620689661    0.0    0.0    
  0.0    5.242758620689661    0.0    
  0.0    0.0    5.242758620689661    
  PRIMCOORD    
  7    1    
  Si    0.0    0.0    0.0    
  Si    0.0    2.621379310344831    2.621379310344831    
  Si    1.3106896551724103    3.932068965517241    3.932068965517241    
  Si    2.621379310344831    0.0    2.621379310344831    
  Si    3.932068965517241    1.3106896551724103    3.932068965517241    
  Si    2.621379310344831    2.621379310344831    0.0    
  Si    3.932068965517241    3.932068965517241    1.3106896551724103    
  BEGIN_BLOCK_DATAGRID_3D    
  3d_datagrid_density    
  BEGIN_DATAGRID_3D#0    
  51    51    51    
  0.0    0.0    0.0    
  5.24275864024525    0.0    0.0    
  0.0    5.24275864024525    0.0    
  0.0    0.0    5.24275864024525    
  0.04897886766403932    0.05773701760931182    0.08572912109026914    0.13879718098889396    0.21632681580108137    
  0.3022120585052737    0.3689511731504629    0.3956576658876228    0.38119600309674867    0.33970371643466235    
  0.28766183775187487    0.23613158268825768    0.19034927119717462    0.15198835087712903    0.12095881477975653    
  0.09641868305281433    0.0773454876181773    0.0627731938198543    0.05181546873478997    0.043676755413393116    
  0.03771349945590902    0.033465570871054694    0.03061831746585883    0.02894826021311125    0.02830018740650145    
  0.028585922997297352    0.029782382892619627    0.03192970424548654    0.03513330984747352    0.039560690981220954    
  0.045436418123449306    0.053064787471332905    0.06288468798351185    0.07549510257487495    0.09159930328684254    
  0.11192914671806453    0.1372425366244134    0.1683176424206836    0.205730317966975    0.24930910443914736    
  0.29718857105947094    0.34415371983223275    0.3796455045840335    0.38841065582179957    0.35799752950850555    
  0.2906517091535668    0.20684695526277444    0.13249760155610887    0.08226799441471658    0.056284552194234866    
  0.04897886766403932    0.057737017609311866    0.06634810096368521    0.09457071617125017    0.14693334934378255    
  0.2213287225081856    0.30132973491001597    0.3610915818445628    0.38220693305859466    0.36492357961620453    
  0.32313140906319643    0.2723073104648296    0.2226412295504477    0.17887636380878472    0.1424503094694796    
  0.11316310653185745    0.09012991950514958    0.07232462501894633    0.0587981337209558    0.04869227769590104    
  0.04124505440906414    0.035844687668189205    0.03205610455699503    0.029583397794744674    0.028218065568837138    
  0.0278168928082742    0.028300187406501472    0.02965027448189369    0.03191145034228282    0.035193907260090786    
  0.039671175027266616    0.045574301801614196    0.0532130327413451    0.06303043839489421    0.07563033801192239    
  0.09172346137293089    0.11205146783353762    0.13738473618458563    0.16852224579092662    0.20607727799010023    
  0.24994020909702655    0.29835785757547423    0.34634223622952    0.38370197224729125    0.3954654484656598    
  0.3688334862386775    0.30477301918433763    0.22227445801384857    0.14688497869312778    0.09433667939689455    
  0.06620499755567967    0.057737017609311866    0.08572912109026916    0.0945707161712501    0.12426553698395074    
  0.17631113035061174    0.24518721423363832    0.31372740890152406    0.359600422792351    0.3695027917446843    
  0.3463737957755162    0.3034687607361386    0.2542227610233972    0.20716047191484585    0.16615510407241513    
  0.13227900576048787    0.10519459487977204    0.08398934430601673    0.06766580635796353    0.05532424400818099    
  0.046160657690181885    0.039466979141645785    0.034678381849925916    0.031393914245958957    0.02934026012834785    
  0.028325171299329478    0.028218065568837044    0.028948260213111178    0.030504007552909263    0.03293431197671378    
  0.03635462917020437    0.04094500413231362    0.04694293774758393    0.054660771512549854    0.06453722624847189    
  0.07716699506398296    0.09325164902836287    0.1135232105465184    0.13873944776751987    0.16969388560080714    
  0.20702642015906927    0.25072033300088703    0.29926960440129974    0.34829997288362896    0.3887801427317125    
  0.4069988646171097    0.3900432170921929    0.33609967844195443    0.2599638315685479    0.18507409060052876    
  0.12888103169604678    0.09650055043970754    0.08572912109026916    0.1387971809888941    0.1469333493437825    
  0.17631113035061174    0.22441955960733825    0.2821153521124832    0.33273911089919156    0.35937744416791767    
  0.35494536080912426    0.3249007666361191    0.2810358847507479    0.23400319092488606    0.1902562094691376    
  0.15263412132219376    0.12179358617898384    0.09726121685979033    0.07812426498163025    0.06344641857890397    
  0.05240275416713441    0.04426159430397053    0.038383027207410644    0.03425996380770841    0.03153187781757057    
  0.029950465453353795    0.0293402601283478    0.029583397794744535    0.03061831746585878    0.03243934650610718    
  0.03509993949057143    0.038719482603492845    0.04348215768739572    0.0496289160796726    0.05746990759116556    
  0.06743034143557415    0.08008195873111007    0.09610157173920017    0.11619441358609116    0.14108178187370282    
  0.17152067906690247    0.20815362010070404    0.25106297457359666    0.29905935889408714    0.3486000222630507    
  0.3923344761709081    0.4186866890663859    0.4154507150209456    0.3779014184192106    0.3150333727819724    
  0.24596066642919884    0.18870127040457807    0.15245210718158492    0.1387971809888941    0.21632681580108143    
  0.22132872250818558    0.24518721423363835    0.28211535211248323    0.3212688973269186    0.348796209472178    
  0.3541704364068088    0.33569806593882084    0.2999160276087315    0.2562489491803566    0.21232467472746708    
  0.17255976818658    0.13881071063617687    0.11134844587291136    0.08959849833802733    0.07268794615945282    
  0.05977201814217889    0.0501172063119525    0.043073513448865196    0.038076597406498505    0.034682855024213435    
  0.03257534822102953    0.03153187781757057    0.03139391424595889    0.03205610455699491    0.033465570871054576    
  0.03562196465570928    0.0385814189974652    0.042463341404705694    0.047449946012728304    0.05377873668316196    
  0.061750627764294484    0.07176852652698894    0.0843696117357277    0.10019346259854033    0.11990536762258969    
  0.14416898666084532    0.1736688434377883    0.20900893152183775    0.25034505350086356    0.2967995178520282    
  0.3456782443724929    0.39144266379030845    0.4251542543682018    0.436397806319498    0.4187872603401221    
  0.375724102076494    0.3203528825496758    0.2686932609937737    0.23232533796315238    0.21632681580108143    
  0.30221205850527366    0.30132973491001597    0.31372740890152406    0.33273911089919156    0.3487962094721779    
  0.35258139832811103    0.33922856135172313    0.31025035707272636    0.27157523285871255    0.22984856082532754    
  0.18999464992172965    0.1547602498871224    0.12521073424957838    0.10131760055980521    0.08246462511581129    
  0.06786325521218556    0.056783141675993326    0.04858931723243153    0.04271574421197175    0.038675453367856105    
  0.036089091173727855    0.034682855024213435    0.03425996380770837    0.03467838184992587    0.03584468766818911    
  0.03771349945590888    0.04028764612056314    0.04362206124731151    0.047829445786464544    0.05308044914517893    
  0.05959875820740233    0.06766729476737371    0.07765924128490799    0.09006912497396004    0.10549074512683076    
  0.12454100295362926    0.14781054846604982    0.17587677486336784    0.209252118557701    0.24811215935317632    
  0.2918304851061759    0.3384309657536052    0.3839626621878917    0.42206670190403894    0.4448228221690574    
  0.4459300968396665    0.4249880019452776    0.38918707315542606    0.350247662777971    0.31906876706885823    
  0.30221205850527366    0.3689511731504629    0.3610915818445629    0.35960042279235105    0.3593774441679177    
  0.3541704364068088    0.3392285613517232    0.3133952528439841    0.2791821516370076    0.24095986892978824    
  0.20289525127657285    0.16789955823642305    0.13754277478319224    0.11233376042778805    0.0920555885820671    
  0.0761175044633395    0.06385096943300717    0.05464978418485605    0.04797675264764343    0.043348649766738946    
  0.04035442914047246    0.038675453367856105    0.038076597406498505    0.038383027207410596    0.039466979141645736    
  0.04124505440906402    0.043676755413393095    0.04676396725830182    0.0505540932745792    0.055144073033702    
  0.06068155435414451    0.06736474630432471    0.07544977311027823    0.08527474505832858    0.09728666228899273    
  0.11202735419454155    0.130060038879425    0.15189596023896268    0.17798421418225    0.2086981628822167    
  0.2441675645825491    0.28393179333778856    0.3265485585941284    0.3692523085589072    0.40774670566929705    
  0.4365696046552736    0.4506875540765661    0.44808492477929796    0.43157166848768364    0.4079998142148113    
  0.3852231763777306    0.3689511731504629    0.39565766588762274    0.3822069330585946    0.3695027917446843    
  0.35494536080912414    0.3356980659388209    0.31025035707272636    0.27918215163700755    0.2447409545815136    
  0.2097314816577987    0.17656919854069447    0.14688316053020747    0.12150349693259814    0.10059392255885588    
  0.08385849110224819    0.07078808034525973    0.060850041751814764    0.05355803716399841    0.0484678080692196    
  0.04517751969147271    0.043348649766738946    0.042715744211971746    0.04307351344886526    0.04426159430397057    
  0.046160657690181815    0.04869227769590095    0.05181546873478983    0.05552424563059827    0.05984944255905859    
  0.06486169032580623    0.07067470910197786    0.07745150306221073    0.08541514825612898    0.09486654465774043    
  0.1062034453098018    0.11991067900579312    0.13649345373485433    0.1563867939404332    0.1799144865152322    
  0.2072911074296681    0.23854741332944748    0.27330406311703714    0.3104876741307492    0.3481366769813194    
  0.38336400118011515    0.41258755023430854    0.4322867261783282    0.44031793494128363    0.4371193295958479    
  0.42578700691389126    0.4107215281570107    0.39565766588762274    0.3811960030967488    0.3649235796162045    
  0.34637379577551625    0.3249007666361191    0.2999160276087315    0.27157523285871255    0.24095986892978818    
  0.2097314816577987    0.17959853421162647    0.15193544091386388    0.1276325166549624    0.1070890439822562    
  0.09028954849160158    0.07694780707766666    0.06666767158126938    0.05904676715718375    0.05370531579147061    
  0.05028647128920964    0.04846780806921956    0.047976752647643346    0.04858931723243157    0.05011720631195245    
  0.05240275416713436    0.05532424400818084    0.05879813372095561    0.06277319381985416    0.06722497124432075    
  0.07215598169366198    0.0775994395315767    0.083626668060484    0.09036009164381462    0.09798774446294026    
  0.1067750845213408    0.11707328263548103    0.12930900206399215    0.14392797143739766    0.161300873423165    
  0.1816549121459819    0.2050671511436912    0.23145136565333302    0.26044427934568953    0.29121747105314805    
  0.3223492303752941    0.35185049591022816    0.3773602501437712    0.3965410473684845    0.4076872134516345    
  0.41034093340960703    0.40549459450288095    0.39511361491523433    0.3811960030967488    0.3397037164346624    
  0.3231314090631964    0.30346876073613865    0.2810358847507479    0.2562489491803567    0.22984856082532765    
  0.2028952512765728    0.17656919854069447    0.15193544091386393    0.12979281651901428    0.11061901401062026    
  0.09458318152483179    0.08161092153397147    0.07148154458541274    0.063915584824422    0.05862140896468119    
  0.05530999581383978    0.05370531579147062    0.05355803716399838    0.05464978418485605    0.05678314167599334    
  0.05977201814217884    0.06344641857890392    0.0676658063579634    0.07232462501894614    0.07734548761817717    
  0.08267052046068314    0.0882602156681351    0.09410042234280538    0.1002160342794749    0.10668937700940932    
  0.11367584380430851    0.1214099857804657    0.13020367538033806    0.14043279283847496    0.15249183869669222    
  0.16670892003554605    0.183261950377665    0.20214804681542586    0.22319075156207702    0.24601071148296408    
  0.26993442064609086    0.29391589396790474    0.31656206675530124    0.3362795425577478    0.35150996562907233    
  0.36102190469135365    0.3641949769120865    0.36115910031895815    0.3526629188842342    0.3397037164346624    
  0.28766183775187487    0.2723073104648296    0.25422276102339725    0.23400319092488606    0.2123246747274671    
  0.18999464992172974    0.16789955823642305    0.14688316053020753    0.1276325166549624    0.11061901401062023    
  0.09609567684558204    0.0841329077230401    0.07467284663834338    0.06758085275644674    0.06267889505467056    
  0.059763500924612765    0.05862140896468118    0.05904676715718379    0.06085004175181479    0.06385096943300712    
  0.06786325521218549    0.07268794615945273    0.0781242649816301    0.08398934430601651    0.09012991950514927    
  0.09641868305281409    0.10274458712926994    0.10901168373767749    0.1151520538909729    0.1211473034139226    
  0.12704878683968152    0.13298833060951312    0.13917743685504352    0.14589980449273623    0.15349766131369544    
  0.1623368269650186    0.17273596282564477    0.18487891467460565    0.1987575573106736    0.21416698531451142    
  0.2307197534718571    0.24783820657644737    0.26473665206634855    0.28044290084563483    0.29388414242115046    
  0.3040194050061941    0.3099905588178311    0.3112662369481398    0.3077337639745855    0.2996816783156878    
  0.28766183775187487    0.23613158268825774    0.22264122955044768    0.20716047191484596    0.1902562094691377    
  0.17255976818658006    0.15476024988712248    0.13754277478319224    0.12150349693259814    0.1070890439822563    
  0.09458318152483183    0.08413290772304012    0.07579064920263735    0.06954860129993655    0.06535330025977429    
  0.0631078198683353    0.06267889505467046    0.06391558482442196    0.06666767158126931    0.0707880803452596    
  0.07611750446333938    0.08246462511581111    0.08959849833802716    0.09726121685979008    0.10519459487977174    
  0.11316310653185704    0.1209588147797562    0.12839376688029733    0.1353009094774471    0.14155576602476488    
  0.14710735472553998    0.15199671801732614    0.15635491762705456    0.16039054656472157    0.16437958382226628    
  0.16865692996930048    0.173592725519155    0.17953520380718893    0.18672502979367886    0.19521738287150314    
  0.20485141160920195    0.2152720345116298    0.2259745196037099    0.2363455484028644    0.2457009124587351    
  0.25333117488389456    0.2585593294196826    0.26081098711939293    0.2596958122174203    0.25507962894019454    
  0.24710446991938761    0.23613158268825774    0.1903492711971746    0.1788763638087847    0.16615510407241516    
  0.15263412132219376    0.13881071063617678    0.1252107342495784    0.11233376042778805    0.10059392255885591    
  0.09028954849160162    0.08161092153397143    0.07467284663834337    0.06954860129993654    0.0662852445943435    
  0.06489701255524896    0.0653533002597743    0.06758085275644671    0.07148154458541266    0.07694780707766657    
  0.08385849110224804    0.09205558858206689    0.10131760055980496    0.11134844587291101    0.12179358617898346    
  0.1322790057604874    0.1424503094694791    0.15198835087712864    0.1606044068238466    0.16804473098081685    
  0.17412425541282936    0.17877072728125318    0.18204288800746019    0.18411199112105908    0.18523023877426997    
  0.1857119547618993    0.18592789080668623    0.18629120759954695    0.18721282225645275    0.18902267527850766    
  0.19188217025041218    0.1957307189457358    0.20029491225552304    0.20515043515604628    0.2097999811140336    
  0.21373532964039987    0.216473665063828    0.21757702140400492    0.2166746663012724    0.21350539555119344    
  0.20797147505342645    0.20016677435784638    0.1903492711971746    0.15198835087712909    0.1424503094694796    
  0.13227900576048787    0.12179358617898384    0.11134844587291136    0.10131760055980522    0.09205558858206705    
  0.0838584911022482    0.07694780707766667    0.07148154458541274    0.06758085275644675    0.06535330025977429    
  0.06489701255524896    0.06628524459434346    0.06954860129993654    0.07467284663834331    0.08161092153397129    
  0.0902895484916014    0.10059392255885566    0.11233376042778777    0.12521073424957802    0.13881071063617645    
  0.15263412132219326    0.16615510407241466    0.1788763638087841    0.1903492711971741    0.2001667743578459    
  0.20797147505342597    0.21350539555119302    0.21667466630127205    0.2175770214040046    0.21647366506382773    
  0.21373532964039954    0.20979998111403347    0.20515043515604608    0.200294912255523    0.1957307189457358    
  0.1918821702504122    0.18902267527850763    0.1872128222564529    0.1862912075995471    0.18592789080668645    
  0.1857119547618995    0.1852302387742702    0.18411199112105925    0.1820428880074604    0.1787707272812536    
  0.17412425541282978    0.1680447309808173    0.160604406823847    0.15198835087712909    0.12095881477975655    
  0.11316310653185742    0.10519459487977208    0.09726121685979036    0.08959849833802734    0.08246462511581135    
  0.07611750446333947    0.07078808034525969    0.06666767158126942    0.063915584824422    0.06267889505467054    
  0.06310781986833529    0.06535330025977432    0.0695486012999365    0.07579064920263733    0.08413290772303998    
  0.09458318152483165    0.107089043982256    0.12150349693259783    0.13754277478319196    0.154760249887122    
  0.1725597681865796    0.19025620946913713    0.20716047191484538    0.2226412295504471    0.23613158268825718    
  0.2471044699193871    0.255079628940194    0.25969581221741994    0.2608109871193925    0.2585593294196823    
  0.25333117488389445    0.24570091245873482    0.23634554840286434    0.22597451960370982    0.21527203451162977    
  0.204851411609202    0.19521738287150328    0.18672502979367891    0.1795352038071891    0.17359272551915517    
  0.16865692996930085    0.16437958382226647    0.16039054656472188    0.1563549176270548    0.15199671801732642    
  0.14710735472554026    0.14155576602476522    0.13530090947744744    0.12839376688029763    0.12095881477975655    
  0.0964186830528144    0.09012991950514963    0.08398934430601679    0.07812426498163032    0.07268794615945286    
  0.06786325521218563    0.0638509694330072    0.0608500417518148    0.0590467671571838    0.05862140896468117    
  0.0597635009246128    0.06267889505467047    0.06758085275644671    0.07467284663834327    0.08413290772303998    
  0.09609567684558183    0.11061901401061998    0.127632516654962    0.14688316053020709    0.1678995582364226    
  0.18999464992172918    0.21232467472746652    0.2340031909248854    0.25422276102339664    0.272307310464829    
  0.28766183775187426    0.2996816783156872    0.30773376397458496    0.31126623694813943    0.3099905588178307    
  0.30401940500619384    0.29388414242115024    0.2804429008456346    0.26473665206634855    0.24783820657644728    
  0.2307197534718571    0.21416698531451148    0.19875755731067374    0.1848789146746058    0.172735962825645    
  0.16233682696501883    0.1534976613136957    0.1458998044927364    0.1391774368550437    0.1329883306095133    
  0.12704878683968177    0.12114730341392284    0.11515205389097312    0.10901168373767776    0.10274458712927023    
  0.0964186830528144    0.07734548761817735    0.07232462501894639    0.06766580635796361    0.06344641857890398    
  0.05977201814217889    0.05678314167599348    0.054649784184856116    0.05355803716399838    0.05370531579147068    
  0.055309995813839795    0.05862140896468125    0.06391558482442194    0.07148154458541274    0.08161092153397134    
  0.09458318152483167    0.11061901401061998    0.12979281651901398    0.15193544091386352    0.176569198540694    
  0.20289525127657232    0.22984856082532704    0.25624894918035607    0.28103588475074726    0.30346876073613793    
  0.3231314090631958    0.3397037164346619    0.35266291888423357    0.36115910031895765    0.3641949769120862    
  0.36102190469135326    0.3515099656290721    0.33627954255774767    0.3165620667553011    0.2939158939679048    
  0.2699344206460908    0.24601071148296427    0.22319075156207716    0.20214804681542603    0.18326195037766513    
  0.1667089200355463    0.15249183869669242    0.1404327928384752    0.13020367538033825    0.12140998578046597    
  0.11367584380430867    0.10668937700940938    0.1002160342794752    0.0941004223428055    0.08826021566813534    
  0.08267052046068335    0.07734548761817735    0.0627731938198543    0.058798133720955846    0.05532424400818099    
  0.052402754167134476    0.05011720631195242    0.04858931723243158    0.04797675264764333    0.04846780806921953    
  0.050286471289209635    0.05370531579147057    0.05904676715718378    0.06666767158126931    0.07694780707766656    
  0.09028954849160138    0.107089043982256    0.127632516654962    0.15193544091386346    0.179598534211626    
  0.20973148165779812    0.24095986892978763    0.2715752328587119    0.2999160276087309    0.32490076663611855    
  0.34637379577551575    0.364923579616204    0.3811960030967484    0.39511361491523406    0.4054945945028805    
  0.41034093340960676    0.4076872134516342    0.3965410473684842    0.3773602501437711    0.35185049591022804    
  0.32234923037529417    0.2912174710531481    0.2604442793456897    0.23145136565333319    0.20506715114369145    
  0.1816549121459821    0.1613008734231652    0.14392797143739794    0.12930900206399248    0.11707328263548121    
  0.10677508452134098    0.09798774446294035    0.09036009164381466    0.08362666806048419    0.07759943953157679    
  0.07215598169366215    0.06722497124432095    0.0627731938198543    0.05181546873478995    0.048692277695901065    
  0.046160657690181885    0.04426159430397057    0.04307351344886516    0.04271574421197173    0.043348649766738946    
  0.0451775196914727    0.04846780806921955    0.05355803716399833    0.06085004175181476    0.07078808034525962    
  0.08385849110224804    0.10059392255885564    0.12150349693259789    0.14688316053020709    0.176569198540694    
  0.20973148165779817    0.24474095458151304    0.279182151637007    0.3102503570727258    0.3356980659388205    
  0.35494536080912387    0.36950279174468414    0.3822069330585946    0.3956576658876228    0.4107215281570107    
  0.42578700691389126    0.4371193295958479    0.44031793494128363    0.4322867261783281    0.41258755023430854    
  0.38336400118011515    0.34813667698131945    0.3104876741307493    0.2733040631170374    0.23854741332944773    
  0.20729110742966841    0.1799144865152324    0.15638679394043348    0.13649345373485455    0.11991067900579336    
  0.10620344530980187    0.09486654465774064    0.08541514825612896    0.07745150306221071    0.07067470910197803    
  0.06486169032580644    0.05984944255905882    0.05552424563059841    0.05181546873478995    0.043676755413393165    
  0.04124505440906405    0.039466979141645805    0.038383027207410644    0.038076597406498436    0.038675453367856105    
  0.04035442914047235    0.04334864976673896    0.04797675264764336    0.054649784184856026    0.06385096943300707    
  0.07611750446333934    0.09205558858206687    0.11233376042778774    0.13754277478319193    0.16789955823642258    
  0.20289525127657237    0.24095986892978763    0.27918215163700705    0.3133952528439836    0.3392285613517228    
  0.35417043640680873    0.35937744416791784    0.35960042279235144    0.3610915818445633    0.3689511731504634    
  0.3852231763777309    0.4079998142148115    0.43157166848768375    0.44808492477929796    0.4506875540765661    
  0.43656960465527367    0.4077467056692971    0.3692523085589074    0.32654855859412857    0.28393179333778884    
  0.24416756458254937    0.20869816288221696    0.17798421418225016    0.15189596023896293    0.13006003887942516    
  0.11202735419454168    0.09728666228899277    0.08527474505832879    0.07544977311027824    0.06736474630432474    
  0.0606815543541447    0.05514407303370212    0.05055409327457934    0.04676396725830194    0.043676755413393165    
  0.037713499455908905    0.03584468766818911    0.03467838184992587    0.03425996380770837    0.0346828550242133    
  0.03608909117372781    0.03867545336785601    0.04271574421197172    0.04858931723243153    0.05678314167599327    
  0.06786325521218547    0.08246462511581111    0.10131760055980495    0.12521073424957802    0.15476024988712198    
  0.18999464992172918    0.22984856082532704    0.27157523285871193    0.31025035707272586    0.33922856135172286    
  0.35258139832811103    0.34879620947217826    0.33273911089919217    0.31372740890152484    0.3013297349100168    
  0.30221205850527444    0.31906876706885884    0.35024766277797137    0.38918707315542633    0.42498800194527775    
  0.4459300968396666    0.4448228221690575    0.4220667019040391    0.3839626621878919    0.3384309657536055    
  0.29183048510617615    0.24811215935317663    0.20925211855770134    0.17587677486336806    0.14781054846605007    
  0.12454100295362945    0.10549074512683099    0.09006912497396011    0.07765924128490813    0.06766729476737378    
  0.05959875820740238    0.05308044914517908    0.04782944578646471    0.04362206124731165    0.04028764612056328    
  0.037713499455908905    0.033465570871054715    0.03205610455699498    0.03139391424595893    0.031531877817570546    
  0.03257534822102944    0.034682855024213394    0.038076597406498464    0.04307351344886518    0.05011720631195238    
  0.05977201814217879    0.07268794615945272    0.08959849833802706    0.11134844587291101    0.1388107106361764    
  0.1725597681865795    0.21232467472746647    0.25624894918035607    0.2999160276087309    0.33569806593882046    
  0.35417043640680873    0.3487962094721782    0.3212688973269193    0.28211535211248406    0.24518721423363943    
  0.22132872250818653    0.21632681580108223    0.23232533796315297    0.26869326099377405    0.32035288254967603    
  0.3757241020764941    0.41878726034012215    0.43639780631949804    0.42515425436820203    0.3914426637903088    
  0.34567824437249306    0.2967995178520285    0.25034505350086395    0.20900893152183808    0.17366884343778854    
  0.14416898666084554    0.11990536762258983    0.1001934625985405    0.08436961173572768    0.07176852652698897    
  0.06175062776429446    0.05377873668316205    0.047449946012728395    0.04246334140470579    0.03858141899746525    
  0.035621964655709416    0.033465570871054715    0.030618317465858875    0.029583397794744674    0.0293402601283478    
  0.029950465453353815    0.031531877817570456    0.03425996380770841    0.038383027207410554    0.04426159430397057    
  0.05240275416713441    0.06344641857890383    0.0781242649816301    0.09726121685979007    0.12179358617898346    
  0.15263412132219326    0.1902562094691371    0.2340031909248854    0.2810358847507473    0.32490076663611855    
  0.3549453608091239    0.35937744416791784    0.33273911089919217    0.28211535211248406    0.22441955960733923    
  0.1763111303506128    0.14693334934378335    0.13879718098889465    0.15245210718158533    0.18870127040457826    
  0.24596066642919878    0.3150333727819724    0.3779014184192105    0.41545071502094555    0.41868668906638606    
  0.39233447617090833    0.348600022263051    0.2990593588940876    0.2510629745735971    0.20815362010070437    
  0.1715206790669027    0.14108178187370307    0.11619441358609135    0.09610157173920036    0.0800819587311101    
  0.06743034143557432    0.05746990759116563    0.04962891607967255    0.04348215768739581    0.03871948260349296    
  0.035099939490571525    0.032439346506107296    0.030618317465858875    0.028948260213111227    0.028218065568837113    
  0.028325171299329502    0.029340260128347825    0.03139391424595877    0.03467838184992587    0.039466979141645715    
  0.046160657690181836    0.05532424400818087    0.06766580635796333    0.08398934430601654    0.10519459487977172    
  0.13227900576048746    0.16615510407241466    0.20716047191484532    0.25422276102339664    0.30346876073613793    
  0.34637379577551575    0.3695027917446842    0.3596004227923513    0.31372740890152484    0.24518721423363934    
  0.17631113035061272    0.12426553698395158    0.0945707161712507    0.08572912109026956    0.09650055043970776    
  0.1288810316960468    0.18507409060052862    0.2599638315685477    0.33609967844195415    0.3900432170921928    
  0.40699886461710966    0.38878014273171285    0.34829997288362935    0.2992696044013002    0.25072033300088753    
  0.20702642015906964    0.1696938856008074    0.13873944776752012    0.1135232105465185    0.09325164902836304    
  0.07716699506398299    0.06453722624847193    0.054660771512549826    0.04694293774758391    0.04094500413231378    
  0.03635462917020437    0.03293431197671387    0.03050400755290947    0.028948260213111227    0.02830018740650159    
  0.027816892808274294    0.02821806556883716    0.02958339779474465    0.03205610455699489    0.03584468766818916    
  0.041245054409064    0.048692277695900996    0.05879813372095571    0.07232462501894614    0.09012991950514934    
  0.11316310653185711    0.14245030946947917    0.1788763638087842    0.2226412295504471    0.272307310464829    
  0.3231314090631958    0.36492357961620403    0.38220693305859466    0.3610915818445633    0.30132973491001686    