
     Program PWSCF v.6.5 starts on 31Mar2023 at  2:15:16 

     This program is part of the open-source Quantum ESPRESSO suite
     for quantum simulation of materials; please cite
         "P. Giannozzi et al., J. Phys.:Condens. Matter 21 395502 (2009);
         "P. Giannozzi et al., J. Phys.:Condens. Matter 29 465901 (2017);
          URL http://www.quantum-espresso.org", 
     in publications or presentations arising from this work. More details at
     http://www.quantum-espresso.org/quote

     Serial version
     Reading input from /home/valeria/Documents/DFTPY/Fitting_densities/Si7-CD/DATA2/Si29.in
Warning: card &IONS ignored
Warning: card / ignored
Warning: card &CELL ignored
Warning: card / ignored
Warning: card &FCP ignored
Warning: card / ignored
Warning: card &RISM ignored
Warning: card / ignored

     Current dimensions of program PWSCF are:
     Max number of different atomic species (ntypx) = 10
     Max number of k-points (npk) =  40000
     Max angular momentum in pseudopotentials (lmaxx) =  3

     WARNING: check_stop already initialized
     Message from routine setup:
     using ibrav=0 with symmetry is DISCOURAGED, use correct ibrav instead

     G-vector sticks info
     --------------------
     sticks:   dense  smooth     PW     G-vecs:    dense   smooth      PW
     Sum        3945    3945   1085               186311   186311   26745



     bravais-lattice index     =            0
     lattice parameter (alat)  =      14.3657  a.u.
     unit-cell volume          =    2964.6962 (a.u.)^3
     number of atoms/cell      =            7
     number of atomic types    =            1
     number of electrons       =        28.00
     number of Kohn-Sham states=           18
     kinetic-energy cutoff     =      60.0000  Ry
     charge density cutoff     =     240.0000  Ry
     convergence threshold     =      1.0E-06
     mixing beta               =       0.7000
     number of iterations used =            8  plain     mixing
     Exchange-correlation= LDA
                           (   1   1   0   0   0   0   0)

     celldm(1)=  14.365698  celldm(2)=   0.000000  celldm(3)=   0.000000
     celldm(4)=   0.000000  celldm(5)=   0.000000  celldm(6)=   0.000000

     crystal axes: (cart. coord. in units of alat)
               a(1) = (   1.000000   0.000000   0.000000 )  
               a(2) = (   0.000000   1.000000   0.000000 )  
               a(3) = (   0.000000   0.000000   1.000000 )  

     reciprocal axes: (cart. coord. in units 2 pi/alat)
               b(1) = (  1.000000  0.000000  0.000000 )  
               b(2) = (  0.000000  1.000000  0.000000 )  
               b(3) = (  0.000000  0.000000  1.000000 )  


     PseudoPot. # 1 for Si read from file:
     /home/valeria/Desktop/programs/dftpy/examples/ofpp/EAC/upf/blps/si.lda.upf
     MD5 check sum: 946fc5a8d23174f015515f8139e499ed
     Pseudo is Norm-conserving, Zval =  4.0
     DFTpy
     Using radial grid of 1601 points,  1 beta functions with: 
                l(1) =   0

     atomic species   valence    mass     pseudopotential
        Si             4.00    28.08000     Si( 1.00)

     24 Sym. Ops. (no inversion) found (18 have fractional translation)



   Cartesian axes

     site n.     atom                  positions (alat units)
         1           Si  tau(   1) = (   0.0000000   0.0000000   0.0000000  )
         2           Si  tau(   2) = (   0.0000000   0.5000000   0.5000000  )
         3           Si  tau(   3) = (   0.2500000   0.7500000   0.7500000  )
         4           Si  tau(   4) = (   0.5000000   0.0000000   0.5000000  )
         5           Si  tau(   5) = (   0.7500000   0.2500000   0.7500000  )
         6           Si  tau(   6) = (   0.5000000   0.5000000   0.0000000  )
         7           Si  tau(   7) = (   0.7500000   0.7500000   0.2500000  )

     number of k points=   220  Gaussian smearing, width (Ry)=  0.0050

     Number of k-points >= 100: set verbosity='high' to print them.

     Dense  grid:   186311 G-vectors     FFT dimensions: (  72,  72,  72)

     Estimated max dynamical RAM per process >       1.53 GB

     Initial potential from superposition of free atoms

     starting charge   27.99552, renormalised to   28.00000
     Starting wfcs are random

     total cpu time spent up to now is      133.4 secs

     Self-consistent Calculation

     iteration #  1     ecut=    60.00 Ry     beta= 0.70
     Davidson diagonalization with overlap
     ethr =  1.00E-02,  avg # of iterations =  8.0

     Threshold (ethr) on eigenvalues was too large:
     Diagonalizing with lowered threshold

     Davidson diagonalization with overlap
     ethr =  4.37E-04,  avg # of iterations =  3.0

     total cpu time spent up to now is     1676.3 secs

     total energy              =     -54.98257104 Ry
     Harris-Foulkes estimate   =     -55.04723539 Ry
     estimated scf accuracy    <       0.12507502 Ry

     iteration #  2     ecut=    60.00 Ry     beta= 0.70
     Davidson diagonalization with overlap
     ethr =  4.47E-04,  avg # of iterations =  4.0

     total cpu time spent up to now is     2202.1 secs

     total energy              =     -54.97622118 Ry
     Harris-Foulkes estimate   =     -55.06576130 Ry
     estimated scf accuracy    <       0.21654034 Ry

     iteration #  3     ecut=    60.00 Ry     beta= 0.70
     Davidson diagonalization with overlap
     ethr =  4.47E-04,  avg # of iterations =  3.1

     total cpu time spent up to now is     2616.5 secs

     total energy              =     -55.01956564 Ry
     Harris-Foulkes estimate   =     -55.02173681 Ry
     estimated scf accuracy    <       0.00690431 Ry

     iteration #  4     ecut=    60.00 Ry     beta= 0.70
     Davidson diagonalization with overlap
     ethr =  2.47E-05,  avg # of iterations =  5.5

     total cpu time spent up to now is     3149.1 secs

     total energy              =     -55.02147365 Ry
     Harris-Foulkes estimate   =     -55.02181420 Ry
     estimated scf accuracy    <       0.00102820 Ry

     iteration #  5     ecut=    60.00 Ry     beta= 0.70
     Davidson diagonalization with overlap
     ethr =  3.67E-06,  avg # of iterations =  5.4

     total cpu time spent up to now is     3575.2 secs

     total energy              =     -55.02158325 Ry
     Harris-Foulkes estimate   =     -55.02162370 Ry
     estimated scf accuracy    <       0.00011629 Ry

     iteration #  6     ecut=    60.00 Ry     beta= 0.70
     Davidson diagonalization with overlap
     ethr =  4.15E-07,  avg # of iterations =  4.1

     total cpu time spent up to now is     4064.9 secs

     total energy              =     -55.02162601 Ry
     Harris-Foulkes estimate   =     -55.02163360 Ry
     estimated scf accuracy    <       0.00002108 Ry

     iteration #  7     ecut=    60.00 Ry     beta= 0.70
     Davidson diagonalization with overlap
     ethr =  7.53E-08,  avg # of iterations =  2.9

     total cpu time spent up to now is     4464.8 secs

     End of self-consistent calculation

     Number of k-points >= 100: set verbosity='high' to print the bands.

     the Fermi energy is    -1.0904 ev

!    total energy              =     -55.02162931 Ry
     Harris-Foulkes estimate   =     -55.02162952 Ry
     estimated scf accuracy    <       0.00000031 Ry

     The total energy is the sum of the following terms:

     one-electron contribution =     -11.56862530 Ry
     hartree contribution      =       9.73696746 Ry
     xc contribution           =     -14.03041867 Ry
     ewald contribution        =     -39.15781674 Ry
     smearing contrib. (-TS)   =      -0.00173605 Ry

     convergence has been achieved in   7 iterations

 Energies determined by pw2casino tool
 -------------------------------------
 Kinetic energy      8.2157988250165914       au  =     16.431597650033183       Ry
 Local energy       -14.000111476278144       au  =    -28.000222952556289       Ry
 Non-Local energy    0.0000000000000000       au  =     0.0000000000000000       Ry
 Ewald energy       -19.578908371370723       au  =    -39.157816742741446       Ry
 xc contribution    -7.0152093338689197       au  =    -14.030418667737839       Ry
 hartree energy      4.8684837280879094       au  =     9.7369674561758188       Ry
 Smearing (-TS)     -8.6802440070836927E-004  au  =    -1.7360488014167385E-003  Ry
 Total energy       -27.510814652704688       au  =    -55.021629305409377       Ry
 -------------------------------------
 Total energy0      -27.510814652813995       au  =    -55.021629305627989       Ry
 External energy0    0.0000000000000000       au  =     0.0000000000000000       Ry
 -------------------------------------


     Writing output data file ./si.save/
